ITEM: TIMESTEP
15400000
ITEM: NUMBER OF ATOMS
5000
ITEM: BOX BOUNDS mm mm mm
0 0.1
-0.015 0.015
0 0.3
ITEM: ATOMS id type x y z f_Temp[0] 
977 1 0.00102825 -0.014 0.000999993 301.276 
581 1 0.00280535 -0.013082 0.000999998 300 
980 1 0.00536401 -0.0139934 0.000999992 303.02 
1252 1 0.0073668 -0.0139976 0.000999998 300 
648 1 0.00943464 -0.014 0.000999991 305.53 
1049 1 0.0114353 -0.0139953 0.000999998 300 
585 1 0.0133901 -0.0135651 0.000999998 300 
453 1 0.0153494 -0.0139699 0.000999997 301.314 
812 1 0.0173493 -0.0139998 0.000999993 307.596 
1111 1 0.0195007 -0.0134438 0.000999984 307.769 
713 1 0.021422 -0.014 0.000999994 304.573 
1065 1 0.0234048 -0.014 0.00126756 302.393 
82 1 0.0265155 -0.0139931 0.000999994 307.729 
383 1 0.0285156 -0.014 0.000999992 306.211 
930 1 0.030521 -0.014 0.000999997 304.05 
936 1 0.0322405 -0.014 0.00202133 307.727 
1185 1 0.0365621 -0.014 0.000999997 301.469 
961 1 0.0387276 -0.014 0.00158109 307.03 
397 1 0.0415067 -0.014 0.000999998 303.909 
434 1 0.0453634 -0.0139995 0.000999989 302.294 
845 1 0.0473634 -0.013996 0.000999993 300.854 
69 1 0.0493634 -0.014 0.000999998 300 
775 1 0.00100002 -0.0113754 0.000999998 300 
100 1 0.0029795 -0.0110896 0.000999992 304.54 
914 1 0.00557519 -0.0112015 0.00100005 307.11 
80 1 0.00757517 -0.0111953 0.000999991 310.463 
451 1 0.00998402 -0.0120769 0.000999996 311.767 
796 1 0.00840292 -0.0126653 0.00207425 305.411 
693 1 0.0116631 -0.012314 0.00206038 321.324 
1317 1 0.0131863 -0.0115688 0.000999987 317.905 
915 1 0.0160944 -0.0121103 0.000999994 309.188 
410 1 0.0190455 -0.011496 0.000999996 308.625 
830 1 0.0224371 -0.0122702 0.000999998 300.446 
320 1 0.0247898 -0.0125822 0.000999992 309.812 
112 1 0.0274126 -0.0122056 0.000999996 311.789 
75 1 0.0305709 -0.0120006 0.000999993 310.991 
44 1 0.0325472 -0.012308 0.000999993 307.003 
903 1 0.0346614 -0.0124727 0.000999987 314.154 
501 1 0.0399655 -0.0125406 0.000999994 311.124 
606 1 0.0381813 -0.0121244 0.00200969 321.654 
895 1 0.0424953 -0.0112468 0.000999991 313.119 
98 1 0.0440827 -0.0124633 0.000999998 304.177 
591 1 0.0463602 -0.0121909 0.000999998 300 
260 1 0.0483399 -0.0113954 0.000999988 308.029 
341 1 0.00236835 -0.00912792 0.000999989 306.323 
781 1 0.00434315 -0.00962605 0.00099999 310.515 
163 1 0.00630249 -0.00922482 0.000999992 314.188 
180 1 0.00969329 -0.0104144 0.00207298 337 
657 1 0.0113778 -0.0106424 0.000999994 312.389 
479 1 0.0130888 -0.00957115 0.00099999 322.809 
1334 1 0.0156328 -0.00933789 0.000999989 329.077 
236 1 0.0173021 -0.0105161 0.00100003 322.327 
463 1 0.0189969 -0.0094543 0.000999987 326.505 
1058 1 0.020961 -0.0109208 0.000999997 307.092 
214 1 0.021988 -0.00920459 0.000999991 326.72 
48 1 0.0236592 -0.010687 0.000999996 316.302 
1001 1 0.0256579 -0.0107646 0.000999989 314.918 
157 1 0.0275721 -0.0101849 0.00099999 329.464 
154 1 0.0295703 -0.010269 0.000999998 327.189 
849 1 0.0316901 -0.0101267 0.000999998 302.908 
986 1 0.0337356 -0.0106994 0.000999992 319.598 
352 1 0.0353603 -0.00937906 0.000999998 323.341 
391 1 0.037078 -0.0107965 0.00099999 321.624 
828 1 0.0380495 -0.00904828 0.000999991 332.669 
1302 1 0.0391669 -0.010707 0.000999988 320.278 
1153 1 0.0410033 -0.00991491 0.000999992 323.694 
1029 1 0.0435086 -0.00935559 0.000999995 317.721 
734 1 0.0450013 -0.0106867 0.000999997 306.068 
168 1 0.0467898 -0.0104128 0.001852 313.199 
673 1 0.0479253 -0.00900397 0.000999991 313.638 
230 1 0.00208414 -0.00710001 0.000999993 314.245 
962 1 0.00400567 -0.00765473 0.000999989 320.085 
829 1 0.00807393 -0.0082964 0.000999989 326.658 
409 1 0.0100683 -0.00814704 0.00100015 322.235 
524 1 0.0120481 -0.00786324 0.000999994 319.373 
1221 1 0.0140493 -0.00781586 0.000999998 303.32 
1092 1 0.0173393 -0.0086903 0.00181755 349.592 
461 1 0.016624 -0.00701102 0.000999992 325.678 
1062 1 0.0197951 -0.00762048 0.000999986 345.765 
790 1 0.0215614 -0.00748521 0.00192831 372.893 
200 1 0.0233297 -0.00737885 0.000999993 345.804 
602 1 0.0247258 -0.00899514 0.000999997 314.037 
546 1 0.0254076 -0.0074302 0.00204216 319.957 
1240 1 0.0269157 -0.00822994 0.000999998 306.864 
247 1 0.0292594 -0.00829331 0.00099999 340.23 
973 1 0.0315646 -0.00811889 0.00099999 327.413 
1319 1 0.0334732 -0.00871669 0.000999992 327.035 
947 1 0.0365133 -0.00779137 0.00138712 309.667 
238 1 0.0398083 -0.00744564 0.000999998 315.73 
162 1 0.0418494 -0.00748755 0.000999997 308.005 
367 1 0.0444121 -0.00769988 0.0016651 314.728 
1274 1 0.0459344 -0.00881346 0.000999986 325.832 
1074 1 0.0498507 -0.00837708 0.000999998 300 
28 1 0.0010002 -0.00541922 0.000999994 308.07 
956 1 0.0029948 -0.00525819 0.000999998 300 
134 1 0.00500411 -0.00536152 0.000999994 326.435 
825 1 0.00684751 -0.00671657 0.000999995 325.506 
976 1 0.00894151 -0.00649438 0.000999994 337.758 
169 1 0.0109715 -0.00601028 0.000999993 334.343 
556 1 0.0129962 -0.00610228 0.000999995 336.278 
421 1 0.0149261 -0.00609382 0.001525 339.811 
1217 1 0.0184323 -0.00615665 0.000999998 329.506 
1325 1 0.0210598 -0.0057357 0.000999998 300 
496 1 0.0230199 -0.00528279 0.000999996 348.655 
639 1 0.024956 -0.005784 0.00099999 344.63 
1151 1 0.0269057 -0.0062297 0.000999984 344.998 
443 1 0.0289834 -0.00546293 0.000999998 300 
1231 1 0.0310307 -0.00545225 0.000999998 300 
146 1 0.0303193 -0.00698151 0.00207498 360.789 
1290 1 0.0330366 -0.00676492 0.000999997 317 
1075 1 0.0353259 -0.00621403 0.000999995 317.964 
618 1 0.038025 -0.00654034 0.000999998 303.625 
83 1 0.0399098 -0.00544822 0.000999985 335.288 
974 1 0.0424605 -0.00544572 0.000999991 331.55 
1289 1 0.0449382 -0.00588859 0.000999992 322.425 
772 1 0.0466402 -0.00609637 0.0020296 340.379 
530 1 0.0482999 -0.00652692 0.000999994 315.157 
283 1 0.00371081 -0.00338748 0.000999998 300 
750 1 0.0056947 -0.00311862 0.000999998 300.007 
234 1 0.00689912 -0.00471724 0.000999994 336.95 
1025 1 0.00808649 -0.0031077 0.000999998 300 
139 1 0.00957764 -0.00451695 0.000999998 300 
791 1 0.0119528 -0.0041857 0.000999985 350.032 
402 1 0.0153626 -0.004214 0.000999994 335.213 
1087 1 0.017357 -0.00447035 0.000999991 342.944 
519 1 0.0193899 -0.00431182 0.000999993 347.847 
275 1 0.0216938 -0.00378558 0.000999994 335.086 
142 1 0.0249492 -0.00393316 0.00175782 359.726 
90 1 0.0267754 -0.00423396 0.000999996 336.197 
492 1 0.032699 -0.00434362 0.000999993 324.614 
749 1 0.0350091 -0.00423928 0.000999994 328.01 
1187 1 0.0369358 -0.00484893 0.000999997 311.297 
175 1 0.0402006 -0.00358298 0.00166048 347.126 
1050 1 0.0420853 -0.00347573 0.000999995 316.97 
846 1 0.0439728 -0.00413701 0.000999988 323.385 
424 1 0.0456873 -0.00431841 0.00201368 324.578 
1243 1 0.0474114 -0.00430605 0.000999998 312.347 
3721 1 0.0493439 -0.00482097 0.000999988 310.761 
77 1 0.00106348 -0.00207041 0.000999998 300 
37 1 0.00269634 -0.00135299 0.00200246 336.28 
1108 1 0.00442621 -0.00130241 0.000999983 334.874 
385 1 0.0074663 -0.0011745 0.000999988 340.651 
89 1 0.0100509 -0.00255536 0.000999998 300 
318 1 0.0118586 -0.00167902 0.000999998 321.818 
32 1 0.0138228 -0.00205531 0.000999998 318.94 
964 1 0.0158217 -0.00212183 0.000999998 312.717 
1180 1 0.0177825 -0.00251614 0.000999993 330.953 
885 1 0.0201852 -0.00247261 0.000999997 336.756 
264 1 0.0220832 -0.00158202 0.000999986 358.955 
258 1 0.0241116 -0.00228266 0.001 363.945 
291 1 0.0258098 -0.00110755 0.000999998 323.04 
1052 1 0.0282802 -0.00291658 0.000999992 354.568 
486 1 0.0304223 -0.00274938 0.000999993 339.573 
401 1 0.0328101 -0.00186878 0.000999996 316.603 
91 1 0.0348112 -0.00186302 0.00099999 330.098 
1248 1 0.0364864 -0.00291987 0.00127711 317.882 
1196 1 0.0384654 -0.00283657 0.000999995 315.244 
351 1 0.0409167 -0.00183629 0.000999995 321.677 
1003 1 0.0429072 -0.00158979 0.000999997 314.266 
545 1 0.0452833 -0.00262575 0.000999997 316.874 
31 1 0.0472197 -0.00212533 0.000999991 311.229 
1027 1 0.0491105 -0.00283465 0.000999996 302.856 
620 1 0.00150677 0.000624044 0.000999984 316.587 
817 1 0.00371008 0.000569552 0.000999998 300 
127 1 0.00591125 -0.000406584 0.00199601 367.88 
306 1 0.00756563 0.000823028 0.000999994 320.915 
167 1 0.00960301 -0.000600847 0.000999992 341.713 
721 1 0.0132144 -0.000384327 0.00191523 375.889 
33 1 0.0157858 -0.000111706 0.000999998 300 
522 1 0.0178026 -0.000347945 0.000999998 300 
1330 1 0.0201727 -0.00047208 0.000999998 300 
624 1 0.0239822 -0.000286865 0.000999988 351.678 
799 1 0.0222849 0.000162791 0.00195755 380.533 
644 1 0.0278053 -0.000973797 0.000999988 362.655 
181 1 0.0267603 0.00074633 0.000999994 355.185 
289 1 0.0300684 -0.000444246 0.000999989 342.113 
899 1 0.0320249 -2.93763e-05 0.000999997 313.438 
184 1 0.0341146 1.69072e-05 0.000999998 301.987 
1191 1 0.0369445 -0.000988193 0.000999998 305.865 
625 1 0.0395813 -0.000291115 0.000999998 309.85 
250 1 0.0417007 7.8194e-06 0.000999996 317.493 
1247 1 0.0440454 0.000574347 0.000999991 322.041 
518 1 0.045939 -0.000588995 0.000999992 323.064 
198 1 0.0476838 0.000898606 0.000999998 300 
527 1 0.0488465 -0.000852146 0.000999995 304.909 
904 1 0.0494914 0.00083641 0.00185608 317.134 
305 1 0.00264916 0.00226565 0.00100002 321.025 
408 1 0.00557638 0.00129512 0.000999993 338.868 
1037 1 0.00643218 0.00282586 0.00196146 356.662 
1054 1 0.00968458 0.00225442 0.000999996 317.386 
310 1 0.0118959 0.00105167 0.000999998 306.032 
364 1 0.0129022 0.00293552 0.000999998 310.671 
392 1 0.0139525 0.00123354 0.000999991 337.58 
430 1 0.0169059 0.00174167 0.000999993 339.428 
723 1 0.0189962 0.00172788 0.000999992 335.466 
279 1 0.0209923 0.00135249 0.000999998 300 
1099 1 0.0248586 0.00295496 0.000999993 348.474 
1044 1 0.0241312 0.00141222 0.00204443 398.522 
1226 1 0.0268526 0.0027672 0.000999989 365.751 
474 1 0.0285332 0.00167963 0.000999992 340.635 
1175 1 0.0304799 0.00146998 0.0014079 349.638 
280 1 0.033244 0.00181831 0.000999998 305.931 
476 1 0.0350733 0.0024588 0.0014934 328.147 
735 1 0.0363974 0.00104339 0.000999985 343.085 
311 1 0.0384834 0.00158561 0.000999987 339.426 
562 1 0.0405308 0.00178272 0.000999989 328.998 
197 1 0.0425283 0.0018813 0.000999995 315.076 
615 1 0.0443907 0.00261031 0.000999986 323.439 
568 1 0.0458138 0.00132471 0.00156747 339.286 
1197 1 0.0497082 0.00263088 0.000999994 316.295 
366 1 0.00100063 0.00383724 0.000999997 304.783 
920 1 0.0043839 0.00326097 0.00099999 322.712 
1036 1 0.00644525 0.00457953 0.000999989 322.311 
314 1 0.00844763 0.00420537 0.000999998 300 
1224 1 0.0104826 0.00408961 0.000999992 329.144 
1124 1 0.0123036 0.0049164 0.000999992 335.14 
1286 1 0.0152051 0.00422662 0.000999983 344.924 
972 1 0.0186014 0.00369399 0.000999996 321.454 
493 1 0.0202753 0.0030119 0.00185588 379.583 
939 1 0.02075 0.00475605 0.000999988 355.454 
923 1 0.0220823 0.00307749 0.000999993 346.092 
241 1 0.0235323 0.00445514 0.00099999 355.89 
322 1 0.0254857 0.00479463 0.00147149 361.957 
485 1 0.0274261 0.00468323 0.000999995 342.028 
814 1 0.0294225 0.00456453 0.000999989 346.666 
1229 1 0.031651 0.00303909 0.000999991 336.755 
879 1 0.0329306 0.00472575 0.000999998 300 
1019 1 0.0354244 0.00436559 0.000999992 332.313 
26 1 0.0374497 0.00408384 0.000999998 300 
946 1 0.0393304 0.00340355 0.000999998 306.116 
1314 1 0.041438 0.0035651 0.000999997 316.621 
300 1 0.0429164 0.00497018 0.000999991 321.559 
757 1 0.0450352 0.00455741 0.000999996 314.172 
121 1 0.0464429 0.00313648 0.000999998 300 
2899 1 0.0491937 0.0045982 0.000999981 323.889 
235 1 0.0481355 0.00327053 0.00205706 343.152 
852 1 0.00147344 0.00578054 0.000999994 303.073 
143 1 0.00359123 0.00509717 0.000999997 316.411 
712 1 0.00611097 0.00655139 0.000999995 313.654 
857 1 0.00765647 0.00583318 0.0020467 327.512 
156 1 0.0101029 0.00606727 0.000999991 326.82 
733 1 0.0125017 0.00690655 0.000999988 333.43 
761 1 0.0142905 0.0060106 0.000999998 300 
1306 1 0.0170989 0.00501409 0.000999991 331.956 
1285 1 0.0165015 0.00696679 0.000999998 304.867 
237 1 0.0189814 0.0056897 0.000999997 327.448 
621 1 0.0222928 0.00602882 0.00099999 343.163 
1134 1 0.0242725 0.00631312 0.000999989 346.233 
1154 1 0.028986 0.0067722 0.000999991 346.562 
332 1 0.0310772 0.00569306 0.000999998 300 
404 1 0.0326452 0.00696578 0.000999994 327.234 
1299 1 0.0344553 0.0061151 0.000999994 324.81 
1088 1 0.0366774 0.00592881 0.000999988 354.312 
54 1 0.0390828 0.00538836 0.000999994 322.778 
176 1 0.0410339 0.00582837 0.000999992 317.384 
544 1 0.0455185 0.00651249 0.000999998 300 
469 1 0.0472716 0.00515104 0.000999995 308.818 
14 1 0.048698 0.00655308 0.000999996 311.024 
741 1 0.000999996 0.00772368 0.00100003 302.518 
187 1 0.00278473 0.00862649 0.000999991 305.121 
540 1 0.00401709 0.00705129 0.000999987 311.1 
193 1 0.00477555 0.00896014 0.000999998 300 
253 1 0.0068207 0.00842122 0.000999996 309.36 
959 1 0.00850773 0.00730957 0.000999992 315.74 
328 1 0.0114072 0.00885281 0.000999998 300 
718 1 0.0132987 0.00844915 0.0019926 333.137 
978 1 0.0151909 0.00848408 0.000999991 328.88 
488 1 0.0171399 0.00893312 0.000999991 324.319 
847 1 0.0186891 0.00766823 0.000999992 329.684 
473 1 0.0206942 0.00740143 0.000999998 300 
854 1 0.0226507 0.00799697 0.000999991 346.76 
207 1 0.0263751 0.00739624 0.000999998 300 
513 1 0.0293352 0.00896057 0.00151575 323.146 
651 1 0.0307733 0.00766986 0.000999989 330.866 
1298 1 0.0326488 0.00875108 0.00190147 319.555 
1244 1 0.0353883 0.00770327 0.00177925 352.404 
611 1 0.0372176 0.00791835 0.000999986 329.125 
730 1 0.039358 0.00754909 0.000999997 317.8 
835 1 0.0417267 0.00744182 0.00195747 352.092 
110 1 0.0436805 0.00766014 0.000999996 315.381 
428 1 0.0469194 0.00795518 0.000999997 301.219 
174 1 0.0497579 0.00825521 0.000999987 316.866 
205 1 0.00100021 0.00991911 0.000999985 301.577 
177 1 0.00272024 0.0104073 0.001908 302.913 
674 1 0.00638342 0.0103728 0.000999989 306.908 
79 1 0.00942032 0.00908922 0.000999998 311.899 
1320 1 0.0104938 0.0103921 0.00207241 319.595 
779 1 0.012119 0.0108494 0.00100017 313.588 
292 1 0.0139551 0.0100566 0.000999991 319.686 
11 1 0.015904 0.0105056 0.00099999 319.069 
50 1 0.0188973 0.00950435 0.00176508 315.891 
1042 1 0.0207436 0.00942882 0.000999998 303.75 
694 1 0.0226224 0.0101149 0.000999989 330.894 
147 1 0.0240051 0.00907428 0.00200252 362.922 
983 1 0.0256274 0.00967679 0.000999989 326.668 
798 1 0.0278229 0.0101635 0.000999996 308.953 
966 1 0.0311269 0.00968438 0.000999995 310.822 
1186 1 0.033815 0.0102344 0.000999995 315.057 
1091 1 0.035782 0.00950263 0.000999993 325.537 
93 1 0.0382867 0.00960858 0.000999998 318.015 
1160 1 0.0399631 0.0106994 0.000999988 306.813 
575 1 0.0411762 0.00910919 0.00099999 318.55 
985 1 0.04312 0.00957997 0.000999996 307.093 
359 1 0.0453271 0.00941899 0.000999995 310.457 
969 1 0.0472618 0.00992566 0.000999998 302.812 
78 1 0.0492059 0.0103951 0.000999992 302.187 
363 1 0.000999994 0.0125472 0.000999995 300.299 
811 1 0.00296408 0.0122886 0.00127469 301.18 
743 1 0.00449491 0.0110312 0.000999993 302.238 
1251 1 0.00600936 0.0123375 0.000999995 301.951 
72 1 0.009055 0.0112752 0.000999994 306.478 
1313 1 0.0110293 0.0125265 0.00099999 306.071 
654 1 0.0139151 0.0120596 0.000999989 313.434 
271 1 0.0178306 0.011047 0.000999998 300 
15 1 0.0191506 0.0123316 0.00178965 311.415 
215 1 0.0208644 0.0116686 0.00099999 314.008 
420 1 0.0226323 0.0118976 0.00190669 317.417 
449 1 0.0244554 0.012149 0.000999998 304.694 
39 1 0.0263672 0.0115349 0.000999992 311.16 
188 1 0.0295985 0.0111181 0.000999991 316.637 
425 1 0.028129 0.0124814 0.000999992 304.827 
1095 1 0.0312193 0.01229 0.000999998 300.001 
1227 1 0.033219 0.0122468 0.000999995 306.823 
119 1 0.0353448 0.0122908 0.000999998 300 
650 1 0.0369685 0.0111127 0.000999989 314.228 
1138 1 0.0386186 0.0122428 0.000999992 307.651 
979 1 0.0405124 0.0124274 0.00184388 311.303 
316 1 0.0424183 0.0117034 0.000999998 301.273 
1297 1 0.0443447 0.0111611 0.00099999 308.121 
1206 1 0.046545 0.0118446 0.000999993 304.077 
380 1 0.0484365 0.0121497 0.00157368 300.963 
347 1 0.00209295 0.014 0.00183359 300.277 
309 1 0.00396196 0.014 0.000999998 300.436 
1130 1 0.00566062 0.014 0.00205571 301.372 
807 1 0.00735927 0.014 0.000999991 301.073 
114 1 0.00931258 0.0135525 0.000999993 302.092 
240 1 0.0123816 0.014 0.000999997 302.922 
672 1 0.0144052 0.014 0.000999998 302.034 
729 1 0.0161846 0.014 0.00191321 308.543 
758 1 0.0179409 0.0137147 0.000999996 304.843 
1038 1 0.0199206 0.014 0.000999993 304.226 
81 1 0.0217812 0.0139926 0.00173331 308.278 
676 1 0.0236419 0.0139761 0.000999994 303.967 
534 1 0.0264787 0.0137739 0.000999998 300 
526 1 0.0299137 0.014 0.000999997 300.915 
101 1 0.0322566 0.014 0.000999994 303.786 
1304 1 0.0342566 0.014 0.00099999 305.202 
1171 1 0.0370745 0.0139066 0.000999998 300 
442 1 0.0396097 0.014 0.000999989 305.069 
348 1 0.0423206 0.013712 0.000999998 300 
626 1 0.0443208 0.014 0.000999994 301 
935 1 0.0466546 0.013946 0.000999998 300 
766 1 0.0489339 0.014 0.000999995 300.498 
728 1 0.00392052 -0.014 0.00238429 303.677 
1249 1 0.00256444 -0.0132265 0.00363435 309.601 
929 1 0.00450257 -0.0131416 0.00412055 316.6 
1137 1 0.00634469 -0.014 0.00274303 308.229 
1097 1 0.0078871 -0.0133954 0.0038635 325.809 
598 1 0.0095839 -0.014 0.0029944 316.186 
1056 1 0.0115791 -0.014 0.0031329 317.774 
747 1 0.0135702 -0.014 0.00294461 309.408 
1337 1 0.0162623 -0.0135725 0.00273454 304.876 
789 1 0.0184969 -0.014 0.00263796 319.249 
894 1 0.0203583 -0.014 0.00336963 319.292 
507 1 0.0220847 -0.0132262 0.00272104 315.75 
170 1 0.0250702 -0.014 0.00238244 310.202 
993 1 0.0240141 -0.0139722 0.00408059 331.005 
1048 1 0.0275175 -0.0134232 0.00263438 319.347 
1267 1 0.0262053 -0.014 0.00402915 306.92 
43 1 0.0295 -0.014 0.00274091 311.359 
1169 1 0.0312288 -0.014 0.00374657 326.677 
1008 1 0.0331407 -0.0134146 0.0037886 315.713 
1168 1 0.0342309 -0.014 0.00221734 308.941 
288 1 0.0350354 -0.014 0.00404837 316.392 
158 1 0.0375146 -0.014 0.00317125 302.659 
47 1 0.0406544 -0.0133617 0.00269294 317.717 
274 1 0.0425983 -0.014 0.00386091 314.356 
652 1 0.0441287 -0.014 0.00257328 306.821 
689 1 0.0463276 -0.014 0.00275222 303.005 
1184 1 0.0483371 -0.014 0.00274697 302.841 
1026 1 0.000999991 -0.0126891 0.00251021 304.05 
261 1 0.000999995 -0.011326 0.00397369 308.467 
1343 1 0.00301409 -0.0113076 0.00397475 321.27 
87 1 0.00423913 -0.0120312 0.0022356 304.041 
355 1 0.00504244 -0.0112267 0.00391614 329.661 
1208 1 0.00656471 -0.0120234 0.00253146 305.849 
22 1 0.00843274 -0.011079 0.00371936 340.207 
378 1 0.0101037 -0.0120919 0.00329275 323.464 
1220 1 0.0128444 -0.012285 0.00367402 319.925 
4 1 0.0145348 -0.0124065 0.00221646 310.926 
336 1 0.015519 -0.0118383 0.00386221 315.205 
622 1 0.0176585 -0.0122282 0.00224094 309.743 
1077 1 0.0174136 -0.0112732 0.00416425 338.955 
736 1 0.0189909 -0.012447 0.00379728 362.082 
681 1 0.0203697 -0.0122626 0.00236006 306.493 
859 1 0.022665 -0.0115618 0.00410205 351.344 
806 1 0.0239103 -0.0124121 0.00278814 331.202 
1152 1 0.0260548 -0.0120702 0.00246214 329.898 
999 1 0.0279366 -0.0119296 0.00389669 331.207 
1316 1 0.0289735 -0.011821 0.0021899 324.542 
797 1 0.029953 -0.0124734 0.00395094 328.033 
1264 1 0.0315301 -0.0122716 0.00273395 306.695 
20 1 0.0336445 -0.0118753 0.00261523 338.123 
1336 1 0.0350723 -0.0118548 0.00401562 325.582 
1126 1 0.0354465 -0.0110244 0.00213404 325.751 
233 1 0.0359508 -0.0129117 0.00256269 306.883 
450 1 0.0369507 -0.0113847 0.00340195 332.6 
160 1 0.0392319 -0.0123737 0.00369314 347.01 
724 1 0.0409925 -0.0114286 0.00230715 331.607 
876 1 0.0419024 -0.0120667 0.00396995 340.26 
872 1 0.0425493 -0.0128203 0.00223337 304.631 
704 1 0.0449215 -0.0120423 0.00276611 307.013 
945 1 0.0469145 -0.0120959 0.00292509 312.475 
221 1 0.0489219 -0.0120878 0.00278378 314.393 
1245 1 0.000999993 -0.00928449 0.00395345 313.99 
744 1 0.00199872 -0.0103191 0.00256345 312.284 
635 1 0.00390569 -0.00984746 0.00293895 324.967 
136 1 0.00590224 -0.00974057 0.00289044 331.407 
418 1 0.00782929 -0.00974667 0.00235529 332.563 
1057 1 0.0112144 -0.00913699 0.00230648 330.868 
259 1 0.0102857 -0.010154 0.00396539 370.685 
1318 1 0.0125372 -0.0106075 0.00262928 349.741 
725 1 0.0121185 -0.00937428 0.00414712 407.346 
1205 1 0.0144017 -0.00990101 0.00247217 360.485 
422 1 0.0163222 -0.0103914 0.00273907 333.104 
924 1 0.0183927 -0.0103733 0.00267041 345.125 
395 1 0.0200087 -0.0107212 0.00379621 348.573 
1195 1 0.0205045 -0.00947314 0.00231414 328.561 
500 1 0.0225748 -0.0102262 0.0026161 340.167 
213 1 0.0246572 -0.0105577 0.00272838 329.694 
909 1 0.0263344 -0.0095128 0.00242 355.802 
740 1 0.0265318 -0.0105259 0.00413308 372.71 
521 1 0.0284821 -0.00929895 0.00254496 369.282 
997 1 0.0297075 -0.0105331 0.00353251 361.29 
445 1 0.0304806 -0.00911342 0.00235493 357.306 
1261 1 0.0322714 -0.0104207 0.00289093 313.293 
529 1 0.0340991 -0.00964259 0.00265859 349.592 
277 1 0.0355513 -0.00991304 0.00402491 368.839 
124 1 0.0367214 -0.00947922 0.002462 361.065 
960 1 0.0385169 -0.0102744 0.00284128 351.748 
510 1 0.0401572 -0.0106169 0.00393302 395.129 
533 1 0.0434256 -0.0107171 0.00268929 329.547 
552 1 0.044975 -0.00945352 0.0026339 361.615 
697 1 0.0458235 -0.0106606 0.00398403 373.069 
440 1 0.0475928 -0.00981798 0.00358448 344.923 
1021 1 0.0490805 -0.0100354 0.00226562 326.815 
95 1 0.0495155 -0.0105984 0.00413479 347.294 
564 1 0.00099999 -0.00828587 0.00219099 311.581 
1178 1 0.00294431 -0.00812116 0.0026297 315.692 
1005 1 0.00493772 -0.00799531 0.00273643 347.859 
284 1 0.00642498 -0.00807971 0.00407095 368.478 
27 1 0.00807073 -0.00718883 0.00266529 371.827 
344 1 0.00938651 -0.00866083 0.00298457 359.949 
455 1 0.0105623 -0.00708018 0.00263943 376.538 
636 1 0.0124312 -0.00770239 0.00298568 370.054 
1006 1 0.0139625 -0.00858986 0.00391714 408.034 
457 1 0.0154895 -0.00790228 0.00238508 314.996 
719 1 0.0174886 -0.00898444 0.00379015 391.738 
970 1 0.0173748 -0.00710733 0.00303941 364.454 
179 1 0.019032 -0.00819104 0.00275844 376.396 
138 1 0.0218439 -0.00861733 0.00355266 391.161 
818 1 0.0203462 -0.00738063 0.00402971 438.759 
246 1 0.0236322 -0.00852863 0.00260825 341.145 
52 1 0.0251761 -0.00874884 0.00386041 389.724 
788 1 0.0270982 -0.0081653 0.00368523 391.567 
988 1 0.028116 -0.00722336 0.00224411 379.572 
490 1 0.0294674 -0.00792801 0.00361716 402.91 
84 1 0.031579 -0.00882185 0.0040007 432.547 
574 1 0.0326897 -0.00787248 0.00263506 355.221 
1270 1 0.0346324 -0.00763772 0.00222151 349.262 
890 1 0.0361877 -0.00783246 0.00346367 411.122 
51 1 0.0380266 -0.00798128 0.00269142 391.992 
631 1 0.0399048 -0.00892272 0.00234495 325.124 
96 1 0.0393912 -0.00787195 0.00414942 467.843 
511 1 0.0410111 -0.00732224 0.00280826 338.394 
466 1 0.041122 -0.00887299 0.00410041 470.801 
1303 1 0.0421003 -0.00893786 0.00235721 367.556 
958 1 0.0436162 -0.00824038 0.00345969 410.685 
801 1 0.0466159 -0.00823817 0.00279014 363.254 
12 1 0.0485517 -0.00783185 0.00249456 334.836 
1322 1 0.00166231 -0.00652449 0.00286836 330.133 
1341 1 0.00396419 -0.00627271 0.00244508 338.835 
558 1 0.00510905 -0.00651309 0.00406821 393.509 
1255 1 0.00617585 -0.0056989 0.0025853 357.009 
56 1 0.00920399 -0.00554256 0.00273928 394.317 
1328 1 0.0124008 -0.00589791 0.00386145 460.021 
981 1 0.0141383 -0.00669754 0.00326137 381.92 
63 1 0.016488 -0.00538171 0.00255375 386.264 
942 1 0.0197866 -0.00626282 0.00246853 402.33 
1115 1 0.0187325 -0.00616465 0.0041654 468.139 
394 1 0.0204476 -0.00512481 0.00397452 400.441 
433 1 0.0221624 -0.00664013 0.00363846 456.196 
1004 1 0.0238057 -0.00623755 0.0025719 391.827 
957 1 0.0256907 -0.00562412 0.0028533 352.112 
436 1 0.0276169 -0.00518118 0.0025475 398.679 
769 1 0.0283152 -0.00634638 0.0040305 464.708 
141 1 0.0300155 -0.00540323 0.00326521 411.015 
59 1 0.0319484 -0.00601689 0.00271977 366.074 
104 1 0.0339034 -0.00541545 0.00219479 339.781 
489 1 0.0353605 -0.00612222 0.00408883 422.858 
1166 1 0.0366481 -0.00613693 0.00250276 317.313 
58 1 0.0378524 -0.00653306 0.00405974 435.135 
593 1 0.0392466 -0.00639765 0.00263055 362.907 
897 1 0.041185 -0.00533196 0.00253628 379.968 
1 1 0.0428685 -0.00661072 0.0025736 355.145 
759 1 0.0446992 -0.00576291 0.00298167 367.82 
396 1 0.0462771 -0.0066257 0.00392378 415.143 
1234 1 0.0482705 -0.00512445 0.00266 335.911 
3839 1 0.0498275 -0.00635211 0.00292208 357.271 
539 1 0.000999991 -0.00463755 0.00284091 319.79 
502 1 0.0028692 -0.00496099 0.00348449 334.707 
1090 1 0.00241806 -0.00326162 0.00253127 327.838 
666 1 0.00465322 -0.00440221 0.00271947 341.722 
102 1 0.00755571 -0.00396157 0.00273142 384.45 
263 1 0.00952789 -0.00357948 0.00294262 422.731 
659 1 0.0111076 -0.00492458 0.00267413 354.774 
61 1 0.0132155 -0.00474062 0.00244835 386.395 
701 1 0.014857 -0.00485586 0.003585 432.674 
968 1 0.0144952 -0.00320426 0.00249262 383.466 
949 1 0.0164875 -0.00336364 0.00242094 368.11 
815 1 0.0184075 -0.00482756 0.00266398 392.034 
941 1 0.0219151 -0.00493099 0.00262965 382.303 
793 1 0.0203805 -0.00364863 0.00260586 390.439 
371 1 0.0217992 -0.00348212 0.00400576 503.003 
437 1 0.0237219 -0.00436751 0.00327611 377.692 
232 1 0.0256883 -0.00374046 0.00360621 407.973 
1053 1 0.0274331 -0.0032043 0.00278871 366.372 
1113 1 0.0294168 -0.00367225 0.0024619 405.302 
239 1 0.0285386 -0.00436099 0.00412155 499.119 
125 1 0.0313661 -0.00411936 0.00247416 364.528 
503 1 0.0305202 -0.00320882 0.00406428 467.316 
685 1 0.0338027 -0.00315327 0.00216831 338.266 
1183 1 0.0329001 -0.00455259 0.00369441 357.16 
607 1 0.0355435 -0.00451931 0.00290681 384.639 
670 1 0.0344352 -0.0033252 0.00406679 473.689 
337 1 0.0372277 -0.00348272 0.00320522 389.115 
1129 1 0.0385362 -0.00458563 0.00217014 348.752 
731 1 0.0397943 -0.0039422 0.00358553 447.477 
571 1 0.0429846 -0.00447594 0.00270542 338.775 
971 1 0.0428698 -0.00304037 0.00409671 439.679 
708 1 0.0447234 -0.00389631 0.00371446 359.508 
886 1 0.0466457 -0.00466918 0.00373368 336.749 
1181 1 0.0478672 -0.0031672 0.00257964 334.793 
7 1 0.000999995 -0.00224926 0.00351349 334.531 
194 1 0.00444504 -0.00241389 0.00266259 367.794 
824 1 0.00663811 -0.002199 0.00250483 370.575 
850 1 0.00789364 -0.0024833 0.00403545 387.667 
520 1 0.00878403 -0.00181657 0.00236061 384.018 
1122 1 0.011365 -0.00295271 0.00246086 392.54 
1071 1 0.0110248 -0.00157098 0.0038662 448.177 
1326 1 0.0128951 -0.00189142 0.00319063 404.155 
592 1 0.0149515 -0.00128289 0.00280888 393.621 
251 1 0.0169801 -0.001426 0.00247444 358.885 
702 1 0.0161354 -0.00228746 0.00406953 353.212 
1149 1 0.0180125 -0.00280077 0.00358607 437.88 
379 1 0.0189674 -0.00158635 0.00231587 368.537 
1284 1 0.0210353 -0.00176092 0.00269408 413.384 
794 1 0.0227832 -0.00284188 0.00238658 404.564 
448 1 0.0225297 -0.0013417 0.0039554 467.172 
1114 1 0.0242126 -0.00239472 0.00371208 476.535 
1335 1 0.0270199 -0.00120829 0.00282432 456.915 
687 1 0.0291767 -0.00168212 0.00229324 403.068 
753 1 0.0287052 -0.00236798 0.00411184 503.03 
628 1 0.0312942 -0.00143576 0.00223057 339.183 
937 1 0.0323336 -0.00265285 0.00342984 405.871 
637 1 0.0355118 -0.00215918 0.00284971 387.507 
998 1 0.0373732 -0.001489 0.00314284 364.942 
128 1 0.0393168 -0.00208354 0.00264561 344.281 
871 1 0.0411969 -0.00260098 0.00308983 322.895 
992 1 0.0426257 -0.00120919 0.00294356 336.308 
587 1 0.0438385 -0.00269671 0.00238109 357.736 
710 1 0.0445866 -0.00189194 0.0040522 430.967 
512 1 0.0461727 -0.00207084 0.00270327 310.163 
21 1 0.0478069 -0.00170423 0.00394202 389.572 
1170 1 0.0495766 -0.00258666 0.00344025 363.557 
822 1 0.000999987 -0.000473589 0.00259319 323.449 
109 1 0.0024542 -0.000832872 0.00391839 370.067 
528 1 0.00578114 -0.000842966 0.00394346 446.196 
242 1 0.00411277 -0.000225061 0.00285187 345.474 
144 1 0.00763281 -0.000245222 0.00300108 379.113 
1192 1 0.00914761 -0.000927255 0.00411472 433.354 
419 1 0.00945075 0.000512878 0.0026542 380.271 
412 1 0.0112445 -0.000305026 0.0023172 327.169 
1076 1 0.0126516 8.42543e-06 0.00379379 431.316 
62 1 0.0149188 0.000712616 0.0026792 398.34 
296 1 0.0169126 0.000567618 0.00261911 394.54 
1125 1 0.0179476 -0.000535511 0.00398153 419.649 
229 1 0.0189022 0.000404401 0.0024965 391.529 
1121 1 0.0207436 0.000143193 0.00323189 414.485 
1269 1 0.0233602 0.000450973 0.00361969 475.488 
182 1 0.0248598 -0.000777839 0.00272881 357.751 
438 1 0.0259157 0.000919027 0.00280466 441.122 
1194 1 0.0286065 0.000232978 0.00237905 398.709 
896 1 0.0318096 -0.000830484 0.00406577 454.893 
1030 1 0.0305119 0.000242498 0.00298658 397.067 
334 1 0.033172 -0.000725086 0.00260031 311.67 
19 1 0.0356439 -0.00022773 0.00234772 386.861 
65 1 0.0377027 0.000305464 0.00232351 357.604 
1120 1 0.0390534 -0.000489579 0.00382456 416.03 
1079 1 0.0395763 0.00096548 0.00255594 354.818 
1268 1 0.0407291 -0.00066785 0.0026123 349.646 
267 1 0.0425149 0.000767667 0.00266122 338.49 
307 1 0.0436758 2.84904e-05 0.00411238 442.292 
640 1 0.0445885 -0.000664407 0.00247324 366.217 
1235 1 0.0459945 0.00043435 0.00337651 342.13 
559 1 0.0474154 -0.000541394 0.0023621 310.406 
70 1 0.0493083 -0.000516063 0.00336394 342.962 
777 1 0.000999995 0.00110825 0.00381703 321.451 
471 1 0.000999996 0.00219067 0.00213525 315.172 
1043 1 0.00259936 0.0010612 0.00261711 338.62 
1165 1 0.0043985 0.00192522 0.00248846 359.405 
1342 1 0.00615918 0.00122393 0.00312734 375.118 
948 1 0.00824989 0.00209418 0.00238418 342.752 
73 1 0.00954494 0.00198347 0.0040064 410.918 
505 1 0.0109079 0.00187772 0.00253671 333.211 
921 1 0.0128894 0.00162969 0.00264707 334.975 
698 1 0.0148031 0.00263621 0.00214408 376.007 
542 1 0.0161275 0.00214771 0.00356089 379.155 
202 1 0.0179548 0.00149021 0.00405531 458.336 
1312 1 0.0198177 0.00190183 0.00345535 441.894 
1100 1 0.0218928 0.00199069 0.0026682 416.183 
902 1 0.024654 0.0020511 0.00386609 463.114 
715 1 0.0275718 0.00203697 0.00271739 430.256 
209 1 0.0292263 0.00157551 0.00374179 453.986 
68 1 0.030945 0.00242399 0.00317064 387.521 
189 1 0.0323332 0.0010903 0.00262827 342.495 
122 1 0.0331342 0.00221269 0.00408336 384.295 
1112 1 0.0343195 0.0011875 0.00284081 352.751 
1259 1 0.0371473 0.00244186 0.00221728 382.166 
570 1 0.0366618 0.0011466 0.00380976 427.4 
1070 1 0.0392343 0.0028996 0.00293307 331.308 