ITEM: TIMESTEP
23700000
ITEM: NUMBER OF ATOMS
5000
ITEM: BOX BOUNDS mm mm mm
0 0.1
-0.015 0.015
0 0.3
ITEM: ATOMS id type x y z f_Temp[0] 
977 1 0.00102825 -0.014 0.000999993 302.182 
581 1 0.00280541 -0.013082 0.000999998 300 
980 1 0.00536401 -0.0139934 0.000999992 304.959 
1252 1 0.00736683 -0.0139977 0.000999998 300 
648 1 0.00943464 -0.014 0.000999991 308.16 
1049 1 0.0114353 -0.0139954 0.000999998 300 
585 1 0.0133901 -0.0135649 0.000999998 300 
453 1 0.0153493 -0.0139698 0.000999997 302.934 
812 1 0.0173493 -0.0139999 0.000999993 309.835 
1111 1 0.0195007 -0.0134438 0.000999984 310.276 
713 1 0.021422 -0.014 0.000999994 307.842 
1065 1 0.0234048 -0.014 0.00126756 304.83 
82 1 0.0265155 -0.0139931 0.000999994 313.709 
383 1 0.0285156 -0.014 0.000999992 310.87 
930 1 0.030521 -0.014 0.000999997 307.878 
936 1 0.0322405 -0.014 0.00202133 314.432 
1185 1 0.0365621 -0.014 0.000999997 305.688 
961 1 0.0387276 -0.014 0.00158109 316.715 
397 1 0.0415067 -0.014 0.000999998 312.158 
434 1 0.0453634 -0.0139995 0.000999989 309.82 
845 1 0.0473634 -0.013996 0.000999993 305.828 
69 1 0.0493634 -0.014 0.000999998 300 
775 1 0.00100002 -0.0113754 0.000999998 300 
100 1 0.0029795 -0.0110896 0.000999992 307.055 
914 1 0.00557519 -0.0112015 0.00100005 311.978 
80 1 0.00757517 -0.0111953 0.000999991 315.567 
451 1 0.00998402 -0.0120769 0.000999996 318.089 
796 1 0.00840292 -0.0126653 0.00207425 310.127 
693 1 0.0116631 -0.012314 0.00206038 328.952 
1317 1 0.0131863 -0.0115688 0.000999987 323.041 
915 1 0.0160944 -0.0121103 0.000999994 314.658 
410 1 0.0190455 -0.011496 0.000999996 313.952 
830 1 0.0224371 -0.0122702 0.000999998 301.284 
320 1 0.0247898 -0.0125822 0.000999992 315.489 
112 1 0.0274126 -0.0122056 0.000999996 320.883 
75 1 0.0305709 -0.0120006 0.000999993 319.106 
44 1 0.0325472 -0.012308 0.000999993 313.263 
903 1 0.0346614 -0.0124727 0.000999987 325.134 
501 1 0.0399655 -0.0125406 0.000999994 323.024 
606 1 0.0381813 -0.0121244 0.00200969 341.504 
895 1 0.0424953 -0.0112468 0.000999991 330.475 
98 1 0.0440827 -0.0124633 0.000999998 317.071 
591 1 0.0463647 -0.0121881 0.000999998 300 
260 1 0.0483399 -0.0113954 0.000999988 328.37 
341 1 0.00236835 -0.00912792 0.000999989 308.747 
781 1 0.00434315 -0.00962605 0.00099999 314.606 
163 1 0.00630249 -0.00922482 0.000999992 319.216 
180 1 0.00969329 -0.0104144 0.00207298 351.066 
657 1 0.0113778 -0.0106424 0.000999994 318.935 
479 1 0.0130888 -0.00957115 0.00099999 327.768 
1334 1 0.0156328 -0.00933789 0.000999989 335.925 
236 1 0.0173021 -0.0105161 0.00100003 332.285 
463 1 0.0189969 -0.0094543 0.000999987 336.002 
1058 1 0.020961 -0.0109208 0.000999997 311.892 
214 1 0.021988 -0.00920459 0.000999991 336.115 
48 1 0.0236592 -0.010687 0.000999996 327.1 
1001 1 0.0256579 -0.0107646 0.000999989 323.071 
157 1 0.0275721 -0.0101849 0.00099999 342.739 
154 1 0.0295703 -0.010269 0.000999998 340.139 
849 1 0.0316897 -0.0101274 0.000999998 308.094 
986 1 0.0337356 -0.0106994 0.000999992 331.504 
352 1 0.0353603 -0.00937906 0.000999998 342.842 
391 1 0.037078 -0.0107965 0.00099999 338.665 
828 1 0.0380495 -0.00904828 0.000999991 351.677 
1302 1 0.0391669 -0.010707 0.000999988 335.615 
1153 1 0.0410033 -0.00991491 0.000999992 343.112 
1029 1 0.0435086 -0.00935559 0.000999995 337.626 
734 1 0.0450013 -0.0106867 0.000999997 322.696 
168 1 0.0467898 -0.0104128 0.001852 344.533 
673 1 0.0479253 -0.00900397 0.000999991 342.066 
230 1 0.00208414 -0.00710001 0.000999993 317.374 
962 1 0.00400567 -0.00765473 0.000999989 324.685 
829 1 0.00807393 -0.0082964 0.000999989 333.398 
409 1 0.0100683 -0.00814704 0.00100015 331.801 
524 1 0.0120481 -0.00786324 0.000999994 325.938 
1221 1 0.0140493 -0.00781582 0.000999998 306.721 
1092 1 0.0173393 -0.0086903 0.00181755 362.297 
461 1 0.016624 -0.00701102 0.000999992 334.953 
1062 1 0.0197951 -0.00762048 0.000999986 356.278 
790 1 0.0215614 -0.00748521 0.00192831 383.896 
200 1 0.0233297 -0.00737885 0.000999993 355.531 
602 1 0.0247258 -0.00899514 0.000999997 323.794 
546 1 0.0254076 -0.0074302 0.00204216 334.523 
1240 1 0.0269157 -0.00822994 0.000999998 313.838 
247 1 0.0292594 -0.00829331 0.00099999 356.085 
973 1 0.0315646 -0.00811889 0.00099999 344.115 
1319 1 0.0334732 -0.00871669 0.000999992 345.117 
947 1 0.0365133 -0.00779137 0.00138712 328.689 
238 1 0.0398083 -0.00744564 0.000999998 336.338 
162 1 0.0418495 -0.00748737 0.000999997 325.717 
367 1 0.0444121 -0.00769988 0.0016651 343.576 
1274 1 0.0459344 -0.00881346 0.000999986 354.383 
1074 1 0.0498526 -0.00837878 0.000999998 300 
28 1 0.0010002 -0.00541922 0.000999994 310.161 
956 1 0.00299523 -0.00525901 0.000999998 300 
134 1 0.00500411 -0.00536152 0.000999994 333.803 
825 1 0.00684751 -0.00671657 0.000999995 331.057 
976 1 0.00894151 -0.00649438 0.000999994 343.386 
169 1 0.0109715 -0.00601028 0.000999993 345.3 
556 1 0.0129962 -0.00610228 0.000999995 345.439 
421 1 0.0149261 -0.00609382 0.001525 352.652 
1217 1 0.0184323 -0.00615665 0.000999998 340.227 
1325 1 0.0210616 -0.00573878 0.000999998 300 
496 1 0.0230199 -0.00528279 0.000999996 362.403 
639 1 0.024956 -0.005784 0.00099999 358.513 
1151 1 0.0269057 -0.0062297 0.000999984 357.979 
443 1 0.0289761 -0.00543236 0.000999998 300 
1231 1 0.0310305 -0.0054521 0.000999998 300 
146 1 0.0303193 -0.00698151 0.00207498 392.092 
1290 1 0.0330366 -0.00676492 0.000999997 336.673 
1075 1 0.0353259 -0.00621403 0.000999995 334.938 
618 1 0.038025 -0.00654034 0.000999998 313.654 
83 1 0.0399098 -0.00544822 0.000999985 361.691 
974 1 0.0424605 -0.00544572 0.000999991 357.73 
1289 1 0.0449382 -0.00588859 0.000999992 350.899 
772 1 0.0466402 -0.00609637 0.0020296 383.799 
530 1 0.0482999 -0.00652692 0.000999994 345.125 
283 1 0.00371038 -0.00338738 0.000999998 300 
750 1 0.00569448 -0.00311848 0.000999998 300.002 
234 1 0.00689912 -0.00471724 0.000999994 344.422 
1025 1 0.00808711 -0.00310822 0.000999998 300 
139 1 0.00957527 -0.0045169 0.000999998 300 
791 1 0.0119528 -0.0041857 0.000999985 360.349 
402 1 0.0153626 -0.004214 0.000999994 347.261 
1087 1 0.017357 -0.00447035 0.000999991 357.395 
519 1 0.0193899 -0.00431182 0.000999993 363.264 
275 1 0.0216938 -0.00378558 0.000999994 346.614 
142 1 0.0249492 -0.00393316 0.00175782 384.138 
90 1 0.0267754 -0.00423396 0.000999996 352.104 
492 1 0.032699 -0.00434362 0.000999993 345.076 
749 1 0.0350091 -0.00423928 0.000999994 350.032 
1187 1 0.0369358 -0.00484893 0.000999997 329.897 
175 1 0.0402006 -0.00358298 0.00166048 380.714 
1050 1 0.0420853 -0.00347573 0.000999995 337.859 
846 1 0.0439728 -0.00413701 0.000999988 351.334 
424 1 0.0456873 -0.00431841 0.00201368 367.388 
1243 1 0.0474114 -0.00430605 0.000999998 345.1 
3721 1 0.0493439 -0.00482097 0.000999988 339.642 
77 1 0.00106594 -0.00208521 0.000999998 300 
37 1 0.00269634 -0.00135299 0.00200246 341.764 
1108 1 0.00442621 -0.00130241 0.000999983 340.073 
385 1 0.0074663 -0.0011745 0.000999988 347.404 
89 1 0.0100507 -0.00255583 0.000999998 300 
318 1 0.0118586 -0.00167902 0.000999998 332.179 
32 1 0.0138228 -0.00205531 0.000999998 329.013 
964 1 0.0158217 -0.00212183 0.000999998 324.452 
1180 1 0.0177825 -0.00251614 0.000999993 343.474 
885 1 0.0201852 -0.00247261 0.000999997 351.273 
264 1 0.0220832 -0.00158202 0.000999986 373.622 
258 1 0.0241116 -0.00228266 0.001 388.083 
291 1 0.0258098 -0.00110755 0.000999998 337.069 
1052 1 0.0282802 -0.00291658 0.000999992 372.496 
486 1 0.0304223 -0.00274938 0.000999993 356.613 
401 1 0.0328101 -0.00186878 0.000999996 334.175 
91 1 0.0348112 -0.00186302 0.00099999 348.432 
1248 1 0.0364864 -0.00291987 0.00127711 339.71 
1196 1 0.0384654 -0.00283657 0.000999995 336.144 
351 1 0.0409167 -0.00183629 0.000999995 347.069 
1003 1 0.0429074 -0.0015896 0.000999997 336.08 
545 1 0.0452833 -0.00262575 0.000999997 344.638 
31 1 0.0472197 -0.00212533 0.000999991 336.26 
1027 1 0.0491105 -0.00283465 0.000999996 316.925 
620 1 0.00150677 0.000624044 0.000999984 320.014 
817 1 0.0037093 0.000569721 0.000999998 300 
127 1 0.00591125 -0.000406584 0.00199601 375.537 
306 1 0.00756563 0.000823028 0.000999994 328.311 
167 1 0.00960301 -0.000600847 0.000999992 351.903 
721 1 0.0132144 -0.000384327 0.00191523 402.047 
33 1 0.0157882 -0.00011099 0.000999998 300 
522 1 0.0178053 -0.000353548 0.000999998 300 
1330 1 0.0201724 -0.00047202 0.000999998 300 
624 1 0.0239822 -0.000286865 0.000999988 370.464 
799 1 0.0222849 0.000162791 0.00195755 410.993 
644 1 0.0278053 -0.000973797 0.000999988 376.076 
181 1 0.0267602 0.000745941 0.000999994 368.915 
289 1 0.0300684 -0.000444246 0.000999989 359.086 
899 1 0.0320249 -2.93762e-05 0.000999997 331.254 
184 1 0.0341146 1.68531e-05 0.000999998 307.946 
1191 1 0.0369447 -0.0009883 0.000999998 316.249 
625 1 0.0395967 -0.000290958 0.000999998 326.622 
250 1 0.0417007 7.81931e-06 0.000999996 345.154 
1247 1 0.0440458 0.000574518 0.000999991 345.694 
518 1 0.045939 -0.000588995 0.000999992 351.663 
198 1 0.0476838 0.000898684 0.000999998 300 
527 1 0.0488465 -0.000852146 0.000999995 324.839 
904 1 0.0494914 0.00083641 0.00185608 359.638 
305 1 0.00264916 0.00226565 0.00100002 326.676 
408 1 0.00557638 0.00129512 0.000999993 345.491 
1037 1 0.00643218 0.00282586 0.00196146 367.886 
1054 1 0.00968458 0.00225442 0.000999996 329.293 
310 1 0.0118963 0.00105145 0.000999998 312.045 
364 1 0.0129022 0.00293552 0.000999998 320.003 
392 1 0.0139525 0.00123354 0.000999991 354.191 
430 1 0.0169059 0.00174167 0.000999993 356.578 
723 1 0.0189957 0.00172791 0.000999992 349.672 
279 1 0.0209923 0.00135248 0.000999998 300 
1099 1 0.0248586 0.00295496 0.000999993 363.312 
1044 1 0.0241312 0.00141222 0.00204443 419.443 
1226 1 0.0268526 0.0027672 0.000999989 383.002 
474 1 0.0285332 0.00167963 0.000999992 360.955 
1175 1 0.0304799 0.00146998 0.0014079 376.643 
280 1 0.033244 0.0018183 0.000999998 318.41 
476 1 0.0350733 0.0024588 0.0014934 361.618 
735 1 0.0363974 0.00104339 0.000999985 369.487 
311 1 0.0384834 0.00158561 0.000999987 368.25 
562 1 0.0405308 0.00178272 0.000999989 355.787 
197 1 0.0425283 0.0018813 0.000999995 335.828 
615 1 0.0443907 0.00261031 0.000999986 351.136 
568 1 0.0458138 0.00132471 0.00156747 383.54 
1197 1 0.0497082 0.00263088 0.000999994 352.129 
366 1 0.00100063 0.00383724 0.000999997 306.555 
920 1 0.0043839 0.00326097 0.00099999 328.123 
1036 1 0.00644525 0.00457953 0.000999989 329.302 
314 1 0.00844549 0.00419937 0.000999998 300 
1224 1 0.0104826 0.00408961 0.000999992 339.41 
1124 1 0.0123036 0.0049164 0.000999992 347.207 
1286 1 0.0152051 0.00422662 0.000999983 358.001 
972 1 0.0186014 0.00369399 0.000999996 330.376 
493 1 0.0202753 0.0030119 0.00185588 401.665 
939 1 0.02075 0.00475605 0.000999988 369.044 
923 1 0.0220823 0.00307749 0.000999993 358.548 
241 1 0.0235323 0.00445514 0.00099999 371.849 
322 1 0.0254857 0.00479463 0.00147149 379.428 
485 1 0.0274261 0.00468323 0.000999995 357.495 
814 1 0.0294225 0.00456453 0.000999989 365.419 
1229 1 0.031651 0.00303909 0.000999991 360.36 
879 1 0.032935 0.00472756 0.000999998 300 
1019 1 0.0354244 0.00436559 0.000999992 350.264 
26 1 0.0374497 0.00408389 0.000999998 300 
946 1 0.0393305 0.00340354 0.000999998 321.198 
1314 1 0.041438 0.0035651 0.000999997 340.776 
300 1 0.0429164 0.00497018 0.000999991 346.637 
757 1 0.0450353 0.00455745 0.000999996 334.598 
121 1 0.0464429 0.00313648 0.000999998 300 
2899 1 0.0491937 0.0045982 0.000999981 355.897 
235 1 0.0481355 0.00327053 0.00205706 391.292 
852 1 0.00147344 0.00578054 0.000999994 304.688 
143 1 0.00359123 0.00509717 0.000999997 321.385 
712 1 0.00611097 0.00655139 0.000999995 321.107 
857 1 0.00765647 0.00583318 0.0020467 341.388 
156 1 0.0101025 0.00606701 0.000999991 335.545 
733 1 0.0125017 0.00690655 0.000999988 344.773 
761 1 0.0142908 0.00601084 0.000999998 300 
1306 1 0.0170989 0.00501409 0.000999991 340.374 
1285 1 0.0165012 0.00696586 0.000999998 311.597 
237 1 0.0189814 0.0056897 0.000999997 337.006 
621 1 0.0222928 0.00602882 0.00099999 353.17 
1134 1 0.0242725 0.00631312 0.000999989 358.681 
1154 1 0.028986 0.0067722 0.000999991 360.877 
332 1 0.0310772 0.00569305 0.000999998 300 
404 1 0.0326452 0.00696578 0.000999994 344.145 
1299 1 0.0344553 0.0061151 0.000999994 343.283 
1088 1 0.0366774 0.00592881 0.000999988 372.748 
54 1 0.0390828 0.00538837 0.000999994 339.688 
176 1 0.0410339 0.00582837 0.000999992 338.846 
544 1 0.0455131 0.00651573 0.000999998 300 
469 1 0.0472716 0.00515104 0.000999995 331.518 
14 1 0.0486979 0.00655309 0.000999996 337.301 
741 1 0.000999996 0.00772368 0.00100003 304.51 
187 1 0.00278473 0.00862649 0.000999991 308.862 
540 1 0.00401709 0.00705129 0.000999987 315.749 
193 1 0.00477851 0.00895597 0.000999998 300 
253 1 0.0068207 0.00842122 0.000999996 316.328 
959 1 0.00850773 0.00730957 0.000999992 325.278 
328 1 0.0114071 0.00884883 0.000999998 300 
718 1 0.0132987 0.00844915 0.0019926 348.275 
978 1 0.0151909 0.00848408 0.000999991 337.802 
488 1 0.0171399 0.00893312 0.000999991 333.705 
847 1 0.0186891 0.00766823 0.000999992 340.573 
473 1 0.020695 0.00740113 0.000999998 300 
854 1 0.0226507 0.00799697 0.000999991 360.166 
207 1 0.0263749 0.00739614 0.000999998 300.093 
513 1 0.0293352 0.00896057 0.00151575 337.886 
651 1 0.0307733 0.00766986 0.000999989 344.216 
1298 1 0.0326488 0.00875108 0.00190147 341.992 
1244 1 0.0353883 0.00770327 0.00177925 380.455 
611 1 0.0372176 0.00791835 0.000999986 348.065 
730 1 0.0393609 0.00754519 0.000999997 334.485 
835 1 0.0417267 0.00744182 0.00195747 387.177 
110 1 0.0436805 0.00766014 0.000999996 333.516 
428 1 0.0469194 0.00795518 0.000999997 309.865 
174 1 0.0497579 0.00825521 0.000999987 348.289 
205 1 0.00100021 0.00991911 0.000999985 303.173 
177 1 0.00272024 0.0104073 0.001908 306.343 
674 1 0.00638342 0.0103728 0.000999989 312.085 
79 1 0.00942032 0.00908922 0.000999998 321.324 
1320 1 0.0104938 0.0103921 0.00207241 331.809 
779 1 0.012119 0.0108494 0.00100017 323.121 
292 1 0.0139551 0.0100566 0.000999991 328.936 
11 1 0.015904 0.0105056 0.00099999 326.707 
50 1 0.0188973 0.00950435 0.00176508 328.135 
1042 1 0.0207436 0.0094288 0.000999998 308.626 
694 1 0.0226224 0.0101149 0.000999989 341.228 
147 1 0.0240051 0.00907428 0.00200252 377.936 
983 1 0.0256274 0.00967679 0.000999989 339.407 
798 1 0.0278229 0.0101635 0.000999996 317.022 
966 1 0.0311269 0.00968438 0.000999995 323.16 
1186 1 0.033815 0.0102344 0.000999995 329.568 
1091 1 0.035782 0.00950263 0.000999993 343.735 
93 1 0.0382867 0.00960858 0.000999998 336.716 
1160 1 0.0399631 0.0106994 0.000999988 319.632 
575 1 0.0411762 0.00910919 0.00099999 338.798 
985 1 0.04312 0.00957997 0.000999996 320.209 
359 1 0.0453271 0.00941899 0.000999995 327.488 
969 1 0.0472618 0.00992566 0.000999998 312.904 
78 1 0.0492059 0.0103951 0.000999992 313.507 
363 1 0.000999994 0.0125472 0.000999995 300.904 
811 1 0.00296408 0.0122886 0.00127469 303.095 
743 1 0.00449491 0.0110312 0.000999993 304.823 
1251 1 0.00600936 0.0123375 0.000999995 304.156 
72 1 0.009055 0.0112752 0.000999994 312.161 
1313 1 0.0110293 0.0125265 0.00099999 311.013 
654 1 0.0139151 0.0120596 0.000999989 319.902 
271 1 0.0178308 0.0110465 0.000999998 300 
15 1 0.0191506 0.0123316 0.00178965 320.759 
215 1 0.0208644 0.0116686 0.00099999 321.712 
420 1 0.0226323 0.0118976 0.00190669 330.447 
449 1 0.0244554 0.012149 0.000999998 311.555 
39 1 0.0263672 0.0115349 0.000999992 319.153 
188 1 0.0295985 0.0111181 0.000999991 328.072 
425 1 0.028129 0.0124814 0.000999992 309.483 
1095 1 0.0312193 0.01229 0.000999998 300 
1227 1 0.033219 0.0122468 0.000999995 315.67 
119 1 0.035345 0.0122924 0.000999998 300 
650 1 0.0369685 0.0111127 0.000999989 329.14 
1138 1 0.0386186 0.0122428 0.000999992 320.359 
979 1 0.0405124 0.0124274 0.00184388 329.336 
316 1 0.042418 0.0117033 0.000999998 307.294 
1297 1 0.0443447 0.0111611 0.00099999 324.037 
1206 1 0.046545 0.0118446 0.000999993 318.021 
380 1 0.0484365 0.0121497 0.00157368 309.505 
347 1 0.00209295 0.014 0.00183359 300.9 
309 1 0.00396196 0.014 0.000999998 301.261 
1130 1 0.00566062 0.014 0.00205571 303.331 
807 1 0.00735927 0.014 0.000999991 302.573 
114 1 0.00931258 0.0135525 0.000999993 304.6 
240 1 0.0123816 0.014 0.000999997 305.169 
672 1 0.0144052 0.014 0.000999998 303.833 
729 1 0.0161846 0.014 0.00191321 313.265 
758 1 0.0179409 0.0137147 0.000999996 309.344 
1038 1 0.0199206 0.014 0.000999993 308.392 
81 1 0.0217812 0.0139926 0.00173331 315.221 
676 1 0.0236419 0.0139761 0.000999994 308.257 
534 1 0.0264757 0.0137832 0.000999998 300 
526 1 0.0299137 0.014 0.000999997 303.647 
101 1 0.0322566 0.014 0.000999994 308.818 
1304 1 0.0342566 0.014 0.00099999 310.532 
1171 1 0.0370528 0.0139172 0.000999998 300 
442 1 0.0396097 0.014 0.000999989 314.883 
348 1 0.0423159 0.0137141 0.000999998 300 
626 1 0.0443208 0.014 0.000999994 306.109 
935 1 0.0466441 0.0139523 0.000999998 300 
766 1 0.0489339 0.014 0.000999995 305.815 
728 1 0.00392052 -0.014 0.00238429 306.239 
1249 1 0.00256444 -0.0132265 0.00363435 314.318 
929 1 0.00450257 -0.0131416 0.00412055 325.041 
1137 1 0.00634469 -0.014 0.00274303 311.86 
1097 1 0.0078871 -0.0133954 0.0038635 331.983 
598 1 0.0095839 -0.014 0.0029944 320.748 
1056 1 0.0115791 -0.014 0.0031329 322.334 
747 1 0.0135702 -0.014 0.00294461 313.671 
1337 1 0.0162623 -0.0135725 0.00273454 308.921 
789 1 0.0184969 -0.014 0.00263796 323.305 
894 1 0.0203583 -0.014 0.00336963 325.193 
507 1 0.0220847 -0.0132262 0.00272104 324.104 
170 1 0.0250702 -0.014 0.00238244 316.463 
993 1 0.0240141 -0.0139722 0.00408059 341.4 
1048 1 0.0275175 -0.0134232 0.00263438 329.476 
1267 1 0.0262053 -0.014 0.00402915 313.315 
43 1 0.0295 -0.014 0.00274091 320.51 
1169 1 0.0312288 -0.014 0.00374657 339.847 
1008 1 0.0331407 -0.0134146 0.0037886 331.121 
1168 1 0.0342309 -0.014 0.00221734 318.224 
288 1 0.0350354 -0.014 0.00404837 329.797 
158 1 0.0375146 -0.014 0.00317125 310.513 
47 1 0.0406544 -0.0133617 0.00269294 339.067 
274 1 0.0425983 -0.014 0.00386091 332.114 
652 1 0.0441287 -0.014 0.00257328 319.539 
689 1 0.0463276 -0.014 0.00275222 315.535 
1184 1 0.0483371 -0.014 0.00274697 314.212 
1026 1 0.000999991 -0.0126891 0.00251021 306.221 
261 1 0.000999995 -0.011326 0.00397369 311.344 
1343 1 0.00301409 -0.0113076 0.00397475 327.736 
87 1 0.00423913 -0.0120312 0.0022356 307.786 
355 1 0.00504244 -0.0112267 0.00391614 340.103 
1208 1 0.00656471 -0.0120234 0.00253146 310.712 
22 1 0.00843274 -0.011079 0.00371936 352.788 
378 1 0.0101037 -0.0120919 0.00329275 334.699 
1220 1 0.0128444 -0.012285 0.00367402 330.414 
4 1 0.0145348 -0.0124065 0.00221646 317.222 
336 1 0.015519 -0.0118383 0.00386221 326.411 
622 1 0.0176585 -0.0122282 0.00224094 315.134 
1077 1 0.0174136 -0.0112732 0.00416425 354.611 
736 1 0.0189909 -0.012447 0.00379728 370.216 
681 1 0.0203697 -0.0122626 0.00236006 312.373 
859 1 0.022665 -0.0115618 0.00410205 365.654 
806 1 0.0239103 -0.0124121 0.00278814 343.857 
1152 1 0.0260548 -0.0120702 0.00246214 341.787 
999 1 0.0279366 -0.0119296 0.00389669 351.525 
1316 1 0.0289735 -0.011821 0.0021899 341.219 
797 1 0.029953 -0.0124734 0.00395094 348.033 
1264 1 0.0315301 -0.0122716 0.00273395 316.984 
20 1 0.0336445 -0.0118753 0.00261523 356.718 
1336 1 0.0350723 -0.0118548 0.00401562 350.993 
1126 1 0.0354465 -0.0110244 0.00213404 345.97 
233 1 0.0359508 -0.0129117 0.00256269 319.984 
450 1 0.0369507 -0.0113847 0.00340195 358.386 
160 1 0.0392319 -0.0123737 0.00369314 371.99 
724 1 0.0409925 -0.0114286 0.00230715 354.24 
876 1 0.0419024 -0.0120667 0.00396995 373.987 
872 1 0.0425493 -0.0128203 0.00223337 317.592 
704 1 0.0449215 -0.0120423 0.00276611 332.27 
945 1 0.0469145 -0.0120959 0.00292509 341.317 
221 1 0.0489219 -0.0120878 0.00278378 341.528 
1245 1 0.000999993 -0.00928449 0.00395345 317.24 
744 1 0.00199872 -0.0103191 0.00256345 316.574 
635 1 0.00390569 -0.00984746 0.00293895 331.967 
136 1 0.00590224 -0.00974057 0.00289044 341.431 
418 1 0.00782929 -0.00974667 0.00235529 343.418 
1057 1 0.0112144 -0.00913699 0.00230648 344.727 
259 1 0.0102857 -0.010154 0.00396539 386.518 
1318 1 0.0125372 -0.0106075 0.00262928 358.01 
725 1 0.0121185 -0.00937428 0.00414712 414.447 
1205 1 0.0144017 -0.00990101 0.00247217 368.262 
422 1 0.0163222 -0.0103914 0.00273907 344.953 
924 1 0.0183927 -0.0103733 0.00267041 360.221 
395 1 0.0200087 -0.0107212 0.00379621 366.541 
1195 1 0.0205045 -0.00947314 0.00231414 343.892 
500 1 0.0225748 -0.0102262 0.0026161 354.736 
213 1 0.0246572 -0.0105577 0.00272838 347.397 
909 1 0.0263344 -0.0095128 0.00242 375.542 
740 1 0.0265318 -0.0105259 0.00413308 393.9 
521 1 0.0284821 -0.00929895 0.00254496 394.455 
997 1 0.0297075 -0.0105331 0.00353251 384.241 
445 1 0.0304806 -0.00911342 0.00235493 376.275 
1261 1 0.0322714 -0.0104207 0.00289093 326.753 
529 1 0.0340991 -0.00964259 0.00265859 368.436 
277 1 0.0355513 -0.00991304 0.00402491 402.011 
124 1 0.0367214 -0.00947922 0.002462 390.304 
960 1 0.0385169 -0.0102744 0.00284128 376.132 
510 1 0.0401572 -0.0106169 0.00393302 415.026 
533 1 0.0434256 -0.0107171 0.00268929 367.284 
552 1 0.044975 -0.00945352 0.0026339 403.739 
697 1 0.0458235 -0.0106606 0.00398403 415.774 
440 1 0.0475928 -0.00981798 0.00358448 392.213 
1021 1 0.0490805 -0.0100354 0.00226562 369.231 
95 1 0.0495155 -0.0105984 0.00413479 404.918 
564 1 0.00099999 -0.00828587 0.00219099 314.633 
1178 1 0.00294431 -0.00812116 0.0026297 322.341 
1005 1 0.00493772 -0.00799531 0.00273643 354.951 
284 1 0.00642498 -0.00807971 0.00407095 380.161 
27 1 0.00807073 -0.00718883 0.00266529 380.929 
344 1 0.00938651 -0.00866083 0.00298457 374.498 
455 1 0.0105623 -0.00708018 0.00263943 388.943 
636 1 0.0124312 -0.00770239 0.00298568 386.219 
1006 1 0.0139625 -0.00858986 0.00391714 418.336 
457 1 0.0154895 -0.00790228 0.00238508 323.848 
719 1 0.0174886 -0.00898444 0.00379015 405.001 
970 1 0.0173748 -0.00710733 0.00303941 386.038 
179 1 0.019032 -0.00819104 0.00275844 391.627 
138 1 0.0218439 -0.00861733 0.00355266 406.064 
818 1 0.0203462 -0.00738063 0.00402971 447.451 
246 1 0.0236322 -0.00852863 0.00260825 357.168 
52 1 0.0251761 -0.00874884 0.00386041 405.994 
788 1 0.0270982 -0.00816529 0.00368523 413.727 
988 1 0.028116 -0.00722336 0.00224411 397.833 
490 1 0.0294674 -0.00792801 0.00361716 436.271 
84 1 0.031579 -0.00882185 0.0040007 451.584 
574 1 0.0326897 -0.00787248 0.00263506 387.236 
1270 1 0.0346324 -0.00763772 0.00222151 378.183 
890 1 0.0361877 -0.00783246 0.00346367 443.963 
51 1 0.0380266 -0.00798128 0.00269142 427.207 
631 1 0.0399048 -0.00892272 0.00234495 351.336 
96 1 0.0393912 -0.00787195 0.00414942 498.286 
511 1 0.0410111 -0.00732224 0.00280826 378.923 
466 1 0.041122 -0.00887299 0.00410041 494.582 
1303 1 0.0421003 -0.00893786 0.00235721 399.099 
958 1 0.0436162 -0.00824038 0.00345969 445.465 
801 1 0.0466159 -0.00823817 0.00279014 412.529 
12 1 0.0485517 -0.00783185 0.00249456 385.861 
1322 1 0.00166231 -0.00652449 0.00286836 333.986 
1341 1 0.00396419 -0.00627271 0.00244508 346.592 
558 1 0.00510905 -0.00651309 0.00406821 393.707 
1255 1 0.00617585 -0.0056989 0.0025853 363.703 
56 1 0.00920399 -0.00554256 0.00273928 402.045 
1328 1 0.0124008 -0.00589791 0.00386145 464.485 
981 1 0.0141383 -0.00669754 0.00326137 397.176 
63 1 0.016488 -0.00538171 0.00255375 406.382 
942 1 0.0197866 -0.00626282 0.00246853 420.85 
1115 1 0.0187325 -0.00616465 0.0041654 484.205 
394 1 0.0204476 -0.00512481 0.00397452 430.251 
433 1 0.0221624 -0.00664013 0.00363846 460.599 
1004 1 0.0238057 -0.00623755 0.0025719 403.764 
957 1 0.0256907 -0.00562412 0.0028533 376.526 
436 1 0.0276169 -0.00518118 0.0025475 418.805 
769 1 0.0283152 -0.00634638 0.0040305 479.876 
141 1 0.0300155 -0.00540323 0.00326521 447.416 
59 1 0.0319484 -0.00601689 0.00271977 406.555 
104 1 0.0339034 -0.00541545 0.00219479 379.75 
489 1 0.0353605 -0.00612222 0.00408883 463.498 
1166 1 0.0366481 -0.00613693 0.00250276 342.649 
58 1 0.0378524 -0.00653306 0.00405974 477.517 
593 1 0.0392466 -0.00639765 0.00263055 403.492 
897 1 0.041185 -0.00533196 0.00253628 413.209 
1 1 0.0428685 -0.00661072 0.0025736 398.745 
759 1 0.0446992 -0.00576291 0.00298167 412.666 
396 1 0.0462771 -0.0066257 0.00392378 456.286 
1234 1 0.0482705 -0.00512445 0.00266 391.621 
3839 1 0.0498275 -0.00635211 0.00292208 422.078 
539 1 0.000999991 -0.00463755 0.00284091 322.969 
502 1 0.0028692 -0.00496099 0.00348449 346.006 
1090 1 0.00241806 -0.00326162 0.00253127 335.653 
666 1 0.00465322 -0.00440221 0.00271947 355.86 
102 1 0.00755571 -0.00396157 0.00273142 398.181 
263 1 0.0095279 -0.00357948 0.00294262 430.769 
659 1 0.0111076 -0.00492458 0.00267413 379.011 
61 1 0.0132155 -0.00474062 0.00244835 399.87 
701 1 0.014857 -0.00485586 0.003585 448.497 
968 1 0.0144952 -0.00320426 0.00249262 403.856 
949 1 0.0164875 -0.00336364 0.00242094 393.548 
815 1 0.0184075 -0.00482756 0.00266398 412.086 
941 1 0.0219151 -0.00493099 0.00262965 406.073 
793 1 0.0203805 -0.00364863 0.00260586 414.045 
371 1 0.0217992 -0.00348212 0.00400576 509.478 
437 1 0.0237219 -0.00436751 0.00327611 403.939 
232 1 0.0256883 -0.00374046 0.00360621 442.35 
1053 1 0.0274331 -0.0032043 0.00278871 400.653 
1113 1 0.0294168 -0.00367225 0.0024619 432.472 
239 1 0.0285386 -0.00436099 0.00412155 509.671 
125 1 0.0313661 -0.00411936 0.00247416 401.661 
503 1 0.0305202 -0.00320882 0.00406428 502.237 
685 1 0.0338027 -0.00315327 0.00216831 366.174 
1183 1 0.0329001 -0.00455259 0.00369441 404.717 
607 1 0.0355435 -0.00451931 0.00290681 426.039 
670 1 0.0344352 -0.0033252 0.00406679 501.208 
337 1 0.0372277 -0.00348272 0.00320522 437.199 
1129 1 0.0385362 -0.00458563 0.00217014 390.163 
731 1 0.0397943 -0.0039422 0.00358553 481.889 
571 1 0.0429846 -0.00447594 0.00270542 380.084 
971 1 0.0428698 -0.00304037 0.00409671 489.059 
708 1 0.0447234 -0.00389631 0.00371446 423.086 
886 1 0.0466457 -0.00466918 0.00373368 394.47 
1181 1 0.0478672 -0.0031672 0.00257964 389.568 
7 1 0.000999995 -0.00224926 0.00351349 334.858 
194 1 0.00444504 -0.00241389 0.00266259 376.311 
824 1 0.00663811 -0.002199 0.00250483 388.94 
850 1 0.00789364 -0.0024833 0.00403545 410.047 
520 1 0.00878403 -0.00181657 0.00236061 394.918 
1122 1 0.011365 -0.00295271 0.00246086 409.821 
1071 1 0.0110248 -0.00157098 0.0038662 463.9 
1326 1 0.0128951 -0.00189142 0.00319063 427.263 
592 1 0.0149515 -0.00128289 0.00280888 422.754 
251 1 0.0169801 -0.001426 0.00247444 390.103 
702 1 0.0161354 -0.00228746 0.00406953 390.914 
1149 1 0.0180125 -0.00280077 0.00358607 457.25 
379 1 0.0189674 -0.00158635 0.00231587 389.478 
1284 1 0.0210353 -0.00176092 0.00269408 439.02 
794 1 0.0227832 -0.00284188 0.00238658 423.21 
448 1 0.0225297 -0.0013417 0.0039554 493.463 
1114 1 0.0242126 -0.00239472 0.00371208 494.32 
1335 1 0.0270199 -0.00120829 0.00282432 471.957 
687 1 0.0291767 -0.00168212 0.00229324 423.662 
753 1 0.0287052 -0.00236798 0.00411184 518.016 
628 1 0.0312942 -0.00143576 0.00223057 364.499 
937 1 0.0323336 -0.00265285 0.00342984 445.393 
637 1 0.0355118 -0.00215918 0.00284971 422.169 
998 1 0.0373732 -0.001489 0.00314284 414.603 
128 1 0.0393168 -0.00208354 0.00264561 384.848 
871 1 0.0411969 -0.00260098 0.00308983 366.835 
992 1 0.0426257 -0.00120919 0.00294356 385.794 
587 1 0.0438385 -0.00269671 0.00238109 401.54 
710 1 0.0445866 -0.00189194 0.0040522 478.446 
512 1 0.0461727 -0.00207084 0.00270327 345.343 
21 1 0.0478069 -0.00170423 0.00394202 470.003 
1170 1 0.0495766 -0.00258666 0.00344025 421.645 
822 1 0.000999987 -0.000473589 0.00259319 325.943 
109 1 0.0024542 -0.000832872 0.00391839 369.352 
528 1 0.00578114 -0.000842966 0.00394346 436.851 
242 1 0.00411277 -0.000225061 0.00285187 355.442 
144 1 0.00763281 -0.000245222 0.00300108 395.418 
1192 1 0.00914761 -0.000927255 0.00411472 446.038 
419 1 0.00945075 0.000512878 0.0026542 397.988 
412 1 0.0112445 -0.000305026 0.0023172 342.489 
1076 1 0.0126516 8.4254e-06 0.00379379 460.144 
62 1 0.0149188 0.000712616 0.0026792 426.504 
296 1 0.0169126 0.000567618 0.00261911 422.029 
1125 1 0.0179476 -0.000535511 0.00398153 451.367 
229 1 0.0189022 0.000404401 0.0024965 417.838 
1121 1 0.0207436 0.000143193 0.00323189 444.491 
1269 1 0.0233602 0.000450973 0.00361969 494.406 
182 1 0.0248598 -0.000777839 0.00272881 383.543 
438 1 0.0259157 0.000919027 0.00280466 462.406 
1194 1 0.0286065 0.000232978 0.00237905 421.982 
896 1 0.0318096 -0.000830484 0.00406577 489.271 
1030 1 0.0305119 0.000242498 0.00298658 430.576 
334 1 0.033172 -0.000725086 0.00260031 331.921 
19 1 0.0356439 -0.00022773 0.00234772 421.902 
65 1 0.0377027 0.000305464 0.00232351 401.495 
1120 1 0.0390534 -0.000489579 0.00382456 464.331 
1079 1 0.0395763 0.00096548 0.00255594 399.557 
1268 1 0.0407291 -0.00066785 0.0026123 395.281 
267 1 0.0425149 0.000767667 0.00266122 386.778 
307 1 0.0436758 2.84904e-05 0.00411238 481.882 
640 1 0.0445885 -0.000664407 0.00247324 410.054 
1235 1 0.0459945 0.00043435 0.00337651 396.058 
559 1 0.0474154 -0.000541394 0.0023621 344.409 
70 1 0.0493083 -0.000516063 0.00336394 421.335 
777 1 0.000999995 0.00110825 0.00381703 325.013 
471 1 0.000999996 0.00219067 0.00213525 318.171 
1043 1 0.00259936 0.0010612 0.00261711 345.321 
1165 1 0.0043985 0.00192522 0.00248846 364.952 
1342 1 0.00615918 0.00122393 0.00312734 386.413 
948 1 0.00824989 0.00209418 0.00238418 359.258 
73 1 0.00954494 0.00198347 0.0040064 428.858 
505 1 0.0109079 0.00187772 0.00253671 354.213 
921 1 0.0128894 0.00162969 0.00264707 360.158 
698 1 0.0148031 0.00263621 0.00214408 396.861 
542 1 0.0161275 0.00214771 0.00356089 408.082 
202 1 0.0179548 0.00149021 0.00405531 480.831 
1312 1 0.0198177 0.00190183 0.00345535 464.622 
1100 1 0.0218928 0.00199069 0.0026682 437.94 
902 1 0.024654 0.0020511 0.00386609 480.111 
715 1 0.0275718 0.00203697 0.00271739 457.025 
209 1 0.0292263 0.00157551 0.00374179 484.924 
68 1 0.030945 0.00242399 0.00317064 426.839 
189 1 0.0323332 0.0010903 0.00262827 379.152 
122 1 0.0331342 0.00221269 0.00408336 435.191 
1112 1 0.0343195 0.0011875 0.00284081 395.37 
1259 1 0.0371473 0.00244187 0.00221728 416.721 
570 1 0.0366618 0.0011466 0.00380976 480.1 
1070 1 0.0392343 0.0028996 0.00293307 372.42 