ITEM: TIMESTEP
23600000
ITEM: NUMBER OF ATOMS
5000
ITEM: BOX BOUNDS mm mm mm
0 0.1
-0.015 0.015
0 0.3
ITEM: ATOMS id type x y z f_Temp[0] 
977 1 0.00102825 -0.014 0.000999993 302.175 
581 1 0.00280541 -0.013082 0.000999998 300 
980 1 0.00536401 -0.0139934 0.000999992 304.943 
1252 1 0.00736683 -0.0139977 0.000999998 300 
648 1 0.00943464 -0.014 0.000999991 308.14 
1049 1 0.0114353 -0.0139954 0.000999998 300 
585 1 0.0133901 -0.0135649 0.000999998 300 
453 1 0.0153493 -0.0139698 0.000999997 302.917 
812 1 0.0173493 -0.0139999 0.000999993 309.82 
1111 1 0.0195007 -0.0134438 0.000999984 310.258 
713 1 0.021422 -0.014 0.000999994 307.817 
1065 1 0.0234048 -0.014 0.00126756 304.809 
82 1 0.0265155 -0.0139931 0.000999994 313.663 
383 1 0.0285156 -0.014 0.000999992 310.836 
930 1 0.030521 -0.014 0.000999997 307.847 
936 1 0.0322405 -0.014 0.00202133 314.381 
1185 1 0.0365621 -0.014 0.000999997 305.638 
961 1 0.0387276 -0.014 0.00158109 316.639 
397 1 0.0415067 -0.014 0.000999998 312.081 
434 1 0.0453634 -0.0139995 0.000999989 309.747 
845 1 0.0473634 -0.013996 0.000999993 305.773 
69 1 0.0493634 -0.014 0.000999998 300 
775 1 0.00100002 -0.0113754 0.000999998 300 
100 1 0.0029795 -0.0110896 0.000999992 307.035 
914 1 0.00557519 -0.0112015 0.00100005 311.937 
80 1 0.00757517 -0.0111953 0.000999991 315.527 
451 1 0.00998402 -0.0120769 0.000999996 318.04 
796 1 0.00840292 -0.0126653 0.00207425 310.084 
693 1 0.0116631 -0.012314 0.00206038 328.896 
1317 1 0.0131863 -0.0115688 0.000999987 323.004 
915 1 0.0160944 -0.0121103 0.000999994 314.612 
410 1 0.0190455 -0.011496 0.000999996 313.907 
830 1 0.0224371 -0.0122702 0.000999998 301.275 
320 1 0.0247898 -0.0125822 0.000999992 315.448 
112 1 0.0274126 -0.0122056 0.000999996 320.812 
75 1 0.0305709 -0.0120006 0.000999993 319.042 
44 1 0.0325472 -0.012308 0.000999993 313.214 
903 1 0.0346614 -0.0124727 0.000999987 325.053 
501 1 0.0399655 -0.0125406 0.000999994 322.936 
606 1 0.0381813 -0.0121244 0.00200969 341.368 
895 1 0.0424953 -0.0112468 0.000999991 330.337 
98 1 0.0440827 -0.0124633 0.000999998 316.939 
591 1 0.0463646 -0.0121881 0.000999998 300 
260 1 0.0483399 -0.0113954 0.000999988 328.213 
341 1 0.00236835 -0.00912792 0.000999989 308.731 
781 1 0.00434315 -0.00962605 0.00099999 314.577 
163 1 0.00630249 -0.00922482 0.000999992 319.181 
180 1 0.00969329 -0.0104144 0.00207298 350.964 
657 1 0.0113778 -0.0106424 0.000999994 318.884 
479 1 0.0130888 -0.00957115 0.00099999 327.735 
1334 1 0.0156328 -0.00933789 0.000999989 335.878 
236 1 0.0173021 -0.0105161 0.00100003 332.207 
463 1 0.0189969 -0.0094543 0.000999987 335.934 
1058 1 0.020961 -0.0109208 0.000999997 311.852 
214 1 0.021988 -0.00920459 0.000999991 336.052 
48 1 0.0236592 -0.010687 0.000999996 327.019 
1001 1 0.0256579 -0.0107646 0.000999989 323.013 
157 1 0.0275721 -0.0101849 0.00099999 342.647 
154 1 0.0295703 -0.010269 0.000999998 340.047 
849 1 0.0316897 -0.0101274 0.000999998 308.039 
986 1 0.0337356 -0.0106994 0.000999992 331.419 
352 1 0.0353603 -0.00937906 0.000999998 342.695 
391 1 0.037078 -0.0107965 0.00099999 338.55 
828 1 0.0380495 -0.00904828 0.000999991 351.568 
1302 1 0.0391669 -0.010707 0.000999988 335.515 
1153 1 0.0410033 -0.00991491 0.000999992 342.984 
1029 1 0.0435086 -0.00935559 0.000999995 337.48 
734 1 0.0450013 -0.0106867 0.000999997 322.54 
168 1 0.0467898 -0.0104128 0.001852 344.269 
673 1 0.0479253 -0.00900397 0.000999991 341.852 
230 1 0.00208414 -0.00710001 0.000999993 317.359 
962 1 0.00400567 -0.00765473 0.000999989 324.66 
829 1 0.00807393 -0.0082964 0.000999989 333.356 
409 1 0.0100683 -0.00814704 0.00100015 331.732 
524 1 0.0120481 -0.00786324 0.000999994 325.893 
1221 1 0.0140493 -0.00781582 0.000999998 306.688 
1092 1 0.0173393 -0.0086903 0.00181755 362.212 
461 1 0.016624 -0.00701102 0.000999992 334.888 
1062 1 0.0197951 -0.00762048 0.000999986 356.217 
790 1 0.0215614 -0.00748521 0.00192831 383.843 
200 1 0.0233297 -0.00737885 0.000999993 355.475 
602 1 0.0247258 -0.00899514 0.000999997 323.717 
546 1 0.0254076 -0.0074302 0.00204216 334.4 
1240 1 0.0269157 -0.00822994 0.000999998 313.772 
247 1 0.0292594 -0.00829331 0.00099999 355.977 
973 1 0.0315646 -0.00811889 0.00099999 343.992 
1319 1 0.0334732 -0.00871669 0.000999992 344.986 
947 1 0.0365133 -0.00779137 0.00138712 328.486 
238 1 0.0398083 -0.00744564 0.000999998 336.175 
162 1 0.0418495 -0.00748737 0.000999997 325.558 
367 1 0.0444121 -0.00769988 0.0016651 343.348 
1274 1 0.0459344 -0.00881346 0.000999986 354.203 
1074 1 0.0498526 -0.00837876 0.000999998 300 
28 1 0.0010002 -0.00541922 0.000999994 310.151 
956 1 0.00299522 -0.005259 0.000999998 300 
134 1 0.00500411 -0.00536152 0.000999994 333.761 
825 1 0.00684751 -0.00671657 0.000999995 331.028 
976 1 0.00894151 -0.00649438 0.000999994 343.361 
169 1 0.0109715 -0.00601028 0.000999993 345.224 
556 1 0.0129962 -0.00610228 0.000999995 345.382 
421 1 0.0149261 -0.00609382 0.001525 352.565 
1217 1 0.0184323 -0.00615665 0.000999998 340.156 
1325 1 0.0210615 -0.00573875 0.000999998 300 
496 1 0.0230199 -0.00528279 0.000999996 362.318 
639 1 0.024956 -0.005784 0.00099999 358.419 
1151 1 0.0269057 -0.0062297 0.000999984 357.894 
443 1 0.0289762 -0.00543272 0.000999998 300 
1231 1 0.0310305 -0.0054521 0.000999998 300 
146 1 0.0303193 -0.00698151 0.00207498 391.874 
1290 1 0.0330366 -0.00676492 0.000999997 336.501 
1075 1 0.0353259 -0.00621403 0.000999995 334.808 
618 1 0.038025 -0.00654034 0.000999998 313.544 
83 1 0.0399098 -0.00544822 0.000999985 361.507 
974 1 0.0424605 -0.00544572 0.000999991 357.562 
1289 1 0.0449382 -0.00588859 0.000999992 350.691 
772 1 0.0466402 -0.00609637 0.0020296 383.492 
530 1 0.0482999 -0.00652692 0.000999994 344.897 
283 1 0.00371039 -0.00338738 0.000999998 300 
750 1 0.00569448 -0.00311848 0.000999998 300.002 
234 1 0.00689912 -0.00471724 0.000999994 344.383 
1025 1 0.0080871 -0.00310822 0.000999998 300 
139 1 0.0095753 -0.00451691 0.000999998 300 
791 1 0.0119528 -0.0041857 0.000999985 360.29 
402 1 0.0153626 -0.004214 0.000999994 347.179 
1087 1 0.017357 -0.00447035 0.000999991 357.298 
519 1 0.0193899 -0.00431182 0.000999993 363.172 
275 1 0.0216938 -0.00378558 0.000999994 346.54 
142 1 0.0249492 -0.00393316 0.00175782 383.973 
90 1 0.0267754 -0.00423396 0.000999996 351.996 
492 1 0.032699 -0.00434362 0.000999993 344.913 
749 1 0.0350091 -0.00423928 0.000999994 349.857 
1187 1 0.0369358 -0.00484893 0.000999997 329.717 
175 1 0.0402006 -0.00358298 0.00166048 380.446 
1050 1 0.0420853 -0.00347573 0.000999995 337.686 
846 1 0.0439728 -0.00413701 0.000999988 351.123 
424 1 0.0456873 -0.00431841 0.00201368 367.017 
1243 1 0.0474114 -0.00430605 0.000999998 344.79 
3721 1 0.0493439 -0.00482097 0.000999988 339.38 
77 1 0.00106591 -0.00208503 0.000999998 300 
37 1 0.00269634 -0.00135299 0.00200246 341.747 
1108 1 0.00442621 -0.00130241 0.000999983 340.054 
385 1 0.0074663 -0.0011745 0.000999988 347.371 
89 1 0.0100507 -0.00255582 0.000999998 300 
318 1 0.0118586 -0.00167902 0.000999998 332.098 
32 1 0.0138228 -0.00205531 0.000999998 328.932 
964 1 0.0158217 -0.00212183 0.000999998 324.346 
1180 1 0.0177825 -0.00251614 0.000999993 343.388 
885 1 0.0201852 -0.00247261 0.000999997 351.176 
264 1 0.0220832 -0.00158202 0.000999986 373.537 
258 1 0.0241116 -0.00228266 0.001 387.924 
291 1 0.0258098 -0.00110755 0.000999998 336.963 
1052 1 0.0282802 -0.00291658 0.000999992 372.385 
486 1 0.0304223 -0.00274938 0.000999993 356.499 
401 1 0.0328101 -0.00186878 0.000999996 334.018 
91 1 0.0348112 -0.00186302 0.00099999 348.291 
1248 1 0.0364864 -0.00291987 0.00127711 339.515 
1196 1 0.0384654 -0.00283657 0.000999995 335.958 
351 1 0.0409167 -0.00183629 0.000999995 346.854 
1003 1 0.0429074 -0.0015896 0.000999997 335.906 
545 1 0.0452833 -0.00262575 0.000999997 344.385 
31 1 0.0472197 -0.00212533 0.000999991 336.032 
1027 1 0.0491105 -0.00283465 0.000999996 316.763 
620 1 0.00150677 0.000624044 0.000999984 319.999 
817 1 0.00370931 0.000569719 0.000999998 300 
127 1 0.00591125 -0.000406584 0.00199601 375.514 
306 1 0.00756563 0.000823028 0.000999994 328.262 
167 1 0.00960301 -0.000600847 0.000999992 351.842 
721 1 0.0132144 -0.000384327 0.00191523 401.874 
33 1 0.0157881 -0.000110999 0.000999998 300 
522 1 0.0178053 -0.00035348 0.000999998 300 
1330 1 0.0201724 -0.000472021 0.000999998 300 
624 1 0.0239822 -0.000286865 0.000999988 370.344 
799 1 0.0222849 0.000162791 0.00195755 410.795 
644 1 0.0278053 -0.000973797 0.000999988 376.006 
181 1 0.0267602 0.000745946 0.000999994 368.854 
289 1 0.0300684 -0.000444246 0.000999989 358.973 
899 1 0.0320249 -2.93762e-05 0.000999997 331.087 
184 1 0.0341146 1.68537e-05 0.000999998 307.868 
1191 1 0.0369447 -0.000988299 0.000999998 316.146 
625 1 0.0395965 -0.000290961 0.000999998 326.462 
250 1 0.0417007 7.81931e-06 0.000999996 344.902 
1247 1 0.0440458 0.000574516 0.000999991 345.547 
518 1 0.045939 -0.000588995 0.000999992 351.462 
198 1 0.0476838 0.000898683 0.000999998 300 
527 1 0.0488465 -0.000852146 0.000999995 324.606 
904 1 0.0494914 0.00083641 0.00185608 359.221 
305 1 0.00264916 0.00226565 0.00100002 326.645 
408 1 0.00557638 0.00129512 0.000999993 345.46 
1037 1 0.00643218 0.00282586 0.00196146 367.828 
1054 1 0.00968458 0.00225442 0.000999996 329.195 
310 1 0.0118963 0.00105145 0.000999998 311.987 
364 1 0.0129022 0.00293552 0.000999998 319.919 
392 1 0.0139525 0.00123354 0.000999991 354.069 
430 1 0.0169059 0.00174167 0.000999993 356.452 
723 1 0.0189957 0.00172791 0.000999992 349.577 
279 1 0.0209923 0.00135248 0.000999998 300 
1099 1 0.0248586 0.00295496 0.000999993 363.227 
1044 1 0.0241312 0.00141222 0.00204443 419.333 
1226 1 0.0268526 0.0027672 0.000999989 382.913 
474 1 0.0285332 0.00167963 0.000999992 360.818 
1175 1 0.0304799 0.00146998 0.0014079 376.455 
280 1 0.033244 0.0018183 0.000999998 318.272 
476 1 0.0350733 0.0024588 0.0014934 361.31 
735 1 0.0363974 0.00104339 0.000999985 369.293 
311 1 0.0384834 0.00158561 0.000999987 368.046 
562 1 0.0405308 0.00178272 0.000999989 355.58 
197 1 0.0425283 0.0018813 0.000999995 335.661 
615 1 0.0443907 0.00261031 0.000999986 350.928 
568 1 0.0458138 0.00132471 0.00156747 383.216 
1197 1 0.0497082 0.00263088 0.000999994 351.817 
366 1 0.00100063 0.00383724 0.000999997 306.544 
920 1 0.0043839 0.00326097 0.00099999 328.092 
1036 1 0.00644525 0.00457953 0.000999989 329.257 
314 1 0.00844551 0.00419944 0.000999998 300 
1224 1 0.0104826 0.00408961 0.000999992 339.342 
1124 1 0.0123036 0.0049164 0.000999992 347.122 
1286 1 0.0152051 0.00422662 0.000999983 357.913 
972 1 0.0186014 0.00369399 0.000999996 330.318 
493 1 0.0202753 0.0030119 0.00185588 401.534 
939 1 0.02075 0.00475605 0.000999988 368.97 
923 1 0.0220823 0.00307749 0.000999993 358.475 
241 1 0.0235323 0.00445514 0.00099999 371.761 
322 1 0.0254857 0.00479463 0.00147149 379.332 
485 1 0.0274261 0.00468323 0.000999995 357.403 
814 1 0.0294225 0.00456453 0.000999989 365.302 
1229 1 0.031651 0.00303909 0.000999991 360.186 
879 1 0.032935 0.00472754 0.000999998 300 
1019 1 0.0354244 0.00436559 0.000999992 350.143 
26 1 0.0374497 0.00408389 0.000999998 300 
946 1 0.0393305 0.00340354 0.000999998 321.033 
1314 1 0.041438 0.0035651 0.000999997 340.571 
300 1 0.0429164 0.00497018 0.000999991 346.443 
757 1 0.0450353 0.00455745 0.000999996 334.435 
121 1 0.0464429 0.00313648 0.000999998 300 
2899 1 0.0491937 0.0045982 0.000999981 355.675 
235 1 0.0481355 0.00327053 0.00205706 390.951 
852 1 0.00147344 0.00578054 0.000999994 304.676 
143 1 0.00359123 0.00509717 0.000999997 321.354 
712 1 0.00611097 0.00655139 0.000999995 321.048 
857 1 0.00765647 0.00583318 0.0020467 341.281 
156 1 0.0101025 0.00606702 0.000999991 335.488 
733 1 0.0125017 0.00690655 0.000999988 344.693 
761 1 0.0142908 0.00601084 0.000999998 300 
1306 1 0.0170989 0.00501409 0.000999991 340.322 
1285 1 0.0165012 0.00696587 0.000999998 311.527 
237 1 0.0189814 0.0056897 0.000999997 336.946 
621 1 0.0222928 0.00602882 0.00099999 353.121 
1134 1 0.0242725 0.00631312 0.000999989 358.616 
1154 1 0.028986 0.0067722 0.000999991 360.793 
332 1 0.0310772 0.00569305 0.000999998 300 
404 1 0.0326452 0.00696578 0.000999994 344.021 
1299 1 0.0344553 0.0061151 0.000999994 343.143 
1088 1 0.0366774 0.00592881 0.000999988 372.665 
54 1 0.0390828 0.00538837 0.000999994 339.583 
176 1 0.0410339 0.00582837 0.000999992 338.666 
544 1 0.0455131 0.00651569 0.000999998 300 
469 1 0.0472716 0.00515104 0.000999995 331.306 
14 1 0.0486979 0.00655309 0.000999996 337.093 
741 1 0.000999996 0.00772368 0.00100003 304.492 
187 1 0.00278473 0.00862649 0.000999991 308.827 
540 1 0.00401709 0.00705129 0.000999987 315.713 
193 1 0.00477848 0.00895602 0.000999998 300 
253 1 0.0068207 0.00842122 0.000999996 316.267 
959 1 0.00850773 0.00730957 0.000999992 325.2 
328 1 0.0114071 0.00884888 0.000999998 300 
718 1 0.0132987 0.00844915 0.0019926 348.16 
978 1 0.0151909 0.00848408 0.000999991 337.744 
488 1 0.0171399 0.00893312 0.000999991 333.639 
847 1 0.0186891 0.00766823 0.000999992 340.497 
473 1 0.020695 0.00740114 0.000999998 300 
854 1 0.0226507 0.00799697 0.000999991 360.088 
207 1 0.026375 0.00739614 0.000999998 300.094 
513 1 0.0293352 0.00896057 0.00151575 337.774 
651 1 0.0307733 0.00766986 0.000999989 344.125 
1298 1 0.0326488 0.00875108 0.00190147 341.798 
1244 1 0.0353883 0.00770327 0.00177925 380.28 
611 1 0.0372176 0.00791835 0.000999986 347.943 
730 1 0.0393609 0.00754524 0.000999997 334.369 
835 1 0.0417267 0.00744182 0.00195747 386.931 
110 1 0.0436805 0.00766014 0.000999996 333.371 
428 1 0.0469194 0.00795518 0.000999997 309.74 
174 1 0.0497579 0.00825521 0.000999987 348.054 
205 1 0.00100021 0.00991911 0.000999985 303.157 
177 1 0.00272024 0.0104073 0.001908 306.308 
674 1 0.00638342 0.0103728 0.000999989 312.038 
79 1 0.00942032 0.00908922 0.000999998 321.24 
1320 1 0.0104938 0.0103921 0.00207241 331.704 
779 1 0.012119 0.0108494 0.00100017 323.04 
292 1 0.0139551 0.0100566 0.000999991 328.867 
11 1 0.015904 0.0105056 0.00099999 326.654 
50 1 0.0188973 0.00950435 0.00176508 328.028 
1042 1 0.0207436 0.0094288 0.000999998 308.576 
694 1 0.0226224 0.0101149 0.000999989 341.164 
147 1 0.0240051 0.00907428 0.00200252 377.858 
983 1 0.0256274 0.00967679 0.000999989 339.32 
798 1 0.0278229 0.0101635 0.000999996 316.958 
966 1 0.0311269 0.00968438 0.000999995 323.052 
1186 1 0.033815 0.0102344 0.000999995 329.449 
1091 1 0.035782 0.00950263 0.000999993 343.62 
93 1 0.0382867 0.00960858 0.000999998 336.578 
1160 1 0.0399631 0.0106994 0.000999988 319.517 
575 1 0.0411762 0.00910919 0.00099999 338.638 
985 1 0.04312 0.00957997 0.000999996 320.092 
359 1 0.0453271 0.00941899 0.000999995 327.34 
969 1 0.0472618 0.00992566 0.000999998 312.791 
78 1 0.0492059 0.0103951 0.000999992 313.384 
363 1 0.000999994 0.0125472 0.000999995 300.897 
811 1 0.00296408 0.0122886 0.00127469 303.073 
743 1 0.00449491 0.0110312 0.000999993 304.795 
1251 1 0.00600936 0.0123375 0.000999995 304.133 
72 1 0.009055 0.0112752 0.000999994 312.108 
1313 1 0.0110293 0.0125265 0.00099999 310.969 
654 1 0.0139151 0.0120596 0.000999989 319.854 
271 1 0.0178308 0.0110465 0.000999998 300 
15 1 0.0191506 0.0123316 0.00178965 320.678 
215 1 0.0208644 0.0116686 0.00099999 321.651 
420 1 0.0226323 0.0118976 0.00190669 330.338 
449 1 0.0244554 0.012149 0.000999998 311.486 
39 1 0.0263672 0.0115349 0.000999992 319.093 
188 1 0.0295985 0.0111181 0.000999991 327.982 
425 1 0.028129 0.0124814 0.000999992 309.442 
1095 1 0.0312193 0.01229 0.000999998 300 
1227 1 0.033219 0.0122468 0.000999995 315.595 
119 1 0.035345 0.0122923 0.000999998 300 
650 1 0.0369685 0.0111127 0.000999989 329.03 
1138 1 0.0386186 0.0122428 0.000999992 320.259 
979 1 0.0405124 0.0124274 0.00184388 329.188 
316 1 0.042418 0.0117033 0.000999998 307.217 
1297 1 0.0443447 0.0111611 0.00099999 323.891 
1206 1 0.046545 0.0118446 0.000999993 317.882 
380 1 0.0484365 0.0121497 0.00157368 309.388 
347 1 0.00209295 0.014 0.00183359 300.892 
309 1 0.00396196 0.014 0.000999998 301.251 
1130 1 0.00566062 0.014 0.00205571 303.309 
807 1 0.00735927 0.014 0.000999991 302.556 
114 1 0.00931258 0.0135525 0.000999993 304.575 
240 1 0.0123816 0.014 0.000999997 305.149 
672 1 0.0144052 0.014 0.000999998 303.817 
729 1 0.0161846 0.014 0.00191321 313.228 
758 1 0.0179409 0.0137147 0.000999996 309.303 
1038 1 0.0199206 0.014 0.000999993 308.354 
81 1 0.0217812 0.0139926 0.00173331 315.162 
676 1 0.0236419 0.0139761 0.000999994 308.219 
534 1 0.0264757 0.0137831 0.000999998 300 
526 1 0.0299137 0.014 0.000999997 303.613 
101 1 0.0322566 0.014 0.000999994 308.773 
1304 1 0.0342566 0.014 0.00099999 310.493 
1171 1 0.0370531 0.0139171 0.000999998 300 
442 1 0.0396097 0.014 0.000999989 314.801 
348 1 0.0423159 0.013714 0.000999998 300 
626 1 0.0443208 0.014 0.000999994 306.046 
935 1 0.0466443 0.0139522 0.000999998 300 
766 1 0.0489339 0.014 0.000999995 305.741 
728 1 0.00392052 -0.014 0.00238429 306.218 
1249 1 0.00256444 -0.0132265 0.00363435 314.283 
929 1 0.00450257 -0.0131416 0.00412055 324.977 
1137 1 0.00634469 -0.014 0.00274303 311.832 
1097 1 0.0078871 -0.0133954 0.0038635 331.945 
598 1 0.0095839 -0.014 0.0029944 320.719 
1056 1 0.0115791 -0.014 0.0031329 322.307 
747 1 0.0135702 -0.014 0.00294461 313.639 
1337 1 0.0162623 -0.0135725 0.00273454 308.88 
789 1 0.0184969 -0.014 0.00263796 323.281 
894 1 0.0203583 -0.014 0.00336963 325.156 
507 1 0.0220847 -0.0132262 0.00272104 324.044 
170 1 0.0250702 -0.014 0.00238244 316.416 
993 1 0.0240141 -0.0139722 0.00408059 341.335 
1048 1 0.0275175 -0.0134232 0.00263438 329.407 
1267 1 0.0262053 -0.014 0.00402915 313.263 
43 1 0.0295 -0.014 0.00274091 320.444 
1169 1 0.0312288 -0.014 0.00374657 339.767 
1008 1 0.0331407 -0.0134146 0.0037886 331.004 
1168 1 0.0342309 -0.014 0.00221734 318.152 
288 1 0.0350354 -0.014 0.00404837 329.699 
158 1 0.0375146 -0.014 0.00317125 310.424 
47 1 0.0406544 -0.0133617 0.00269294 338.905 
274 1 0.0425983 -0.014 0.00386091 331.986 
652 1 0.0441287 -0.014 0.00257328 319.441 
689 1 0.0463276 -0.014 0.00275222 315.41 
1184 1 0.0483371 -0.014 0.00274697 314.102 
1026 1 0.000999991 -0.0126891 0.00251021 306.204 
261 1 0.000999995 -0.011326 0.00397369 311.325 
1343 1 0.00301409 -0.0113076 0.00397475 327.695 
87 1 0.00423913 -0.0120312 0.0022356 307.752 
355 1 0.00504244 -0.0112267 0.00391614 340.031 
1208 1 0.00656471 -0.0120234 0.00253146 310.668 
22 1 0.00843274 -0.011079 0.00371936 352.7 
378 1 0.0101037 -0.0120919 0.00329275 334.613 
1220 1 0.0128444 -0.012285 0.00367402 330.324 
4 1 0.0145348 -0.0124065 0.00221646 317.169 
336 1 0.015519 -0.0118383 0.00386221 326.305 
622 1 0.0176585 -0.0122282 0.00224094 315.089 
1077 1 0.0174136 -0.0112732 0.00416425 354.491 
736 1 0.0189909 -0.012447 0.00379728 370.177 
681 1 0.0203697 -0.0122626 0.00236006 312.32 
859 1 0.022665 -0.0115618 0.00410205 365.572 
806 1 0.0239103 -0.0124121 0.00278814 343.774 
1152 1 0.0260548 -0.0120702 0.00246214 341.711 
999 1 0.0279366 -0.0119296 0.00389669 351.37 
1316 1 0.0289735 -0.011821 0.0021899 341.09 
797 1 0.029953 -0.0124734 0.00395094 347.885 
1264 1 0.0315301 -0.0122716 0.00273395 316.883 
20 1 0.0336445 -0.0118753 0.00261523 356.591 
1336 1 0.0350723 -0.0118548 0.00401562 350.78 
1126 1 0.0354465 -0.0110244 0.00213404 345.821 
233 1 0.0359508 -0.0129117 0.00256269 319.847 
450 1 0.0369507 -0.0113847 0.00340195 358.195 
160 1 0.0392319 -0.0123737 0.00369314 371.852 
724 1 0.0409925 -0.0114286 0.00230715 354.083 
876 1 0.0419024 -0.0120667 0.00396995 373.742 
872 1 0.0425493 -0.0128203 0.00223337 317.459 
704 1 0.0449215 -0.0120423 0.00276611 332.004 
945 1 0.0469145 -0.0120959 0.00292509 341.077 
221 1 0.0489219 -0.0120878 0.00278378 341.329 
1245 1 0.000999993 -0.00928449 0.00395345 317.224 
744 1 0.00199872 -0.0103191 0.00256345 316.546 
635 1 0.00390569 -0.00984746 0.00293895 331.923 
136 1 0.00590224 -0.00974057 0.00289044 341.363 
418 1 0.00782929 -0.00974667 0.00235529 343.342 
1057 1 0.0112144 -0.00913699 0.00230648 344.623 
259 1 0.0102857 -0.010154 0.00396539 386.415 
1318 1 0.0125372 -0.0106075 0.00262928 357.96 
725 1 0.0121185 -0.00937428 0.00414712 414.433 
1205 1 0.0144017 -0.00990101 0.00247217 368.217 
422 1 0.0163222 -0.0103914 0.00273907 344.859 
924 1 0.0183927 -0.0103733 0.00267041 360.112 
395 1 0.0200087 -0.0107212 0.00379621 366.415 
1195 1 0.0205045 -0.00947314 0.00231414 343.776 
500 1 0.0225748 -0.0102262 0.0026161 354.642 
213 1 0.0246572 -0.0105577 0.00272838 347.265 
909 1 0.0263344 -0.0095128 0.00242 375.409 
740 1 0.0265318 -0.0105259 0.00413308 393.771 
521 1 0.0284821 -0.00929895 0.00254496 394.287 
997 1 0.0297075 -0.0105331 0.00353251 384.087 
445 1 0.0304806 -0.00911342 0.00235493 376.152 
1261 1 0.0322714 -0.0104207 0.00289093 326.629 
529 1 0.0340991 -0.00964259 0.00265859 368.31 
277 1 0.0355513 -0.00991304 0.00402491 401.798 
124 1 0.0367214 -0.00947922 0.002462 390.13 
960 1 0.0385169 -0.0102744 0.00284128 375.98 
510 1 0.0401572 -0.0106169 0.00393302 414.946 
533 1 0.0434256 -0.0107171 0.00268929 367.006 
552 1 0.044975 -0.00945352 0.0026339 403.515 
697 1 0.0458235 -0.0106606 0.00398403 415.562 
440 1 0.0475928 -0.00981798 0.00358448 391.888 
1021 1 0.0490805 -0.0100354 0.00226562 368.932 
95 1 0.0495155 -0.0105984 0.00413479 404.541 
564 1 0.00099999 -0.00828587 0.00219099 314.616 
1178 1 0.00294431 -0.00812116 0.0026297 322.295 
1005 1 0.00493772 -0.00799531 0.00273643 354.92 
284 1 0.00642498 -0.00807971 0.00407095 380.099 
27 1 0.00807073 -0.00718883 0.00266529 380.89 
344 1 0.00938651 -0.00866083 0.00298457 374.404 
455 1 0.0105623 -0.00708018 0.00263943 388.874 
636 1 0.0124312 -0.00770239 0.00298568 386.114 
1006 1 0.0139625 -0.00858986 0.00391714 418.285 
457 1 0.0154895 -0.00790228 0.00238508 323.773 
719 1 0.0174886 -0.00898444 0.00379015 404.923 
970 1 0.0173748 -0.00710733 0.00303941 385.891 
179 1 0.019032 -0.00819104 0.00275844 391.536 
138 1 0.0218439 -0.00861733 0.00355266 405.997 
818 1 0.0203462 -0.00738063 0.00402971 447.434 
246 1 0.0236322 -0.00852863 0.00260825 357.058 
52 1 0.0251761 -0.00874884 0.00386041 405.899 
788 1 0.0270982 -0.00816529 0.00368523 413.586 
988 1 0.028116 -0.00722336 0.00224411 397.719 
490 1 0.0294674 -0.00792801 0.00361716 436.06 
84 1 0.031579 -0.00882185 0.0040007 451.499 
574 1 0.0326897 -0.00787248 0.00263506 387.006 
1270 1 0.0346324 -0.00763772 0.00222151 377.991 
890 1 0.0361877 -0.00783246 0.00346367 443.798 
51 1 0.0380266 -0.00798128 0.00269142 427.025 
631 1 0.0399048 -0.00892272 0.00234495 351.143 
96 1 0.0393912 -0.00787195 0.00414942 498.229 
511 1 0.0410111 -0.00732224 0.00280826 378.642 
466 1 0.041122 -0.00887299 0.00410041 494.577 
1303 1 0.0421003 -0.00893786 0.00235721 398.94 
958 1 0.0436162 -0.00824038 0.00345969 445.322 
801 1 0.0466159 -0.00823817 0.00279014 412.243 
12 1 0.0485517 -0.00783185 0.00249456 385.522 
1322 1 0.00166231 -0.00652449 0.00286836 333.977 
1341 1 0.00396419 -0.00627271 0.00244508 346.555 
558 1 0.00510905 -0.00651309 0.00406821 393.756 
1255 1 0.00617585 -0.0056989 0.0025853 363.683 
56 1 0.00920399 -0.00554256 0.00273928 402.028 
1328 1 0.0124008 -0.00589791 0.00386145 464.515 
981 1 0.0141383 -0.00669754 0.00326137 397.084 
63 1 0.016488 -0.00538171 0.00255375 406.257 
942 1 0.0197866 -0.00626282 0.00246853 420.759 
1115 1 0.0187325 -0.00616465 0.0041654 484.165 
394 1 0.0204476 -0.00512481 0.00397452 430.071 
433 1 0.0221624 -0.00664013 0.00363846 460.625 
1004 1 0.0238057 -0.00623755 0.0025719 403.704 
957 1 0.0256907 -0.00562412 0.0028533 376.347 
436 1 0.0276169 -0.00518118 0.0025475 418.684 
769 1 0.0283152 -0.00634638 0.0040305 479.812 
141 1 0.0300155 -0.00540323 0.00326521 447.199 
59 1 0.0319484 -0.00601689 0.00271977 406.256 
104 1 0.0339034 -0.00541545 0.00219479 379.409 
489 1 0.0353605 -0.00612222 0.00408883 463.253 
1166 1 0.0366481 -0.00613693 0.00250276 342.387 
58 1 0.0378524 -0.00653306 0.00405974 477.27 
593 1 0.0392466 -0.00639765 0.00263055 403.238 
897 1 0.041185 -0.00533196 0.00253628 413.016 
1 1 0.0428685 -0.00661072 0.0025736 398.487 
759 1 0.0446992 -0.00576291 0.00298167 412.39 
396 1 0.0462771 -0.0066257 0.00392378 456.092 
1234 1 0.0482705 -0.00512445 0.00266 391.187 
3839 1 0.0498275 -0.00635211 0.00292208 421.672 
539 1 0.000999991 -0.00463755 0.00284091 322.959 
502 1 0.0028692 -0.00496099 0.00348449 345.941 
1090 1 0.00241806 -0.00326162 0.00253127 335.613 
666 1 0.00465322 -0.00440221 0.00271947 355.774 
102 1 0.00755571 -0.00396157 0.00273142 398.112 
263 1 0.00952789 -0.00357948 0.00294262 430.759 
659 1 0.0111076 -0.00492458 0.00267413 378.833 
61 1 0.0132155 -0.00474062 0.00244835 399.8 
701 1 0.014857 -0.00485586 0.003585 448.43 
968 1 0.0144952 -0.00320426 0.00249262 403.724 
949 1 0.0164875 -0.00336364 0.00242094 393.362 
815 1 0.0184075 -0.00482756 0.00266398 411.981 
941 1 0.0219151 -0.00493099 0.00262965 405.926 
793 1 0.0203805 -0.00364863 0.00260586 413.905 
371 1 0.0217992 -0.00348212 0.00400576 509.496 
437 1 0.0237219 -0.00436751 0.00327611 403.761 
232 1 0.0256883 -0.00374046 0.00360621 442.134 
1053 1 0.0274331 -0.0032043 0.00278871 400.41 
1113 1 0.0294168 -0.00367225 0.0024619 432.313 
239 1 0.0285386 -0.00436099 0.00412155 509.662 
125 1 0.0313661 -0.00411936 0.00247416 401.39 
503 1 0.0305202 -0.00320882 0.00406428 502.06 
685 1 0.0338027 -0.00315327 0.00216831 365.952 
1183 1 0.0329001 -0.00455259 0.00369441 404.33 
607 1 0.0355435 -0.00451931 0.00290681 425.743 
670 1 0.0344352 -0.0033252 0.00406679 501.064 
337 1 0.0372277 -0.00348272 0.00320522 436.858 
1129 1 0.0385362 -0.00458563 0.00217014 389.863 
731 1 0.0397943 -0.0039422 0.00358553 481.679 
571 1 0.0429846 -0.00447594 0.00270542 379.784 
971 1 0.0428698 -0.00304037 0.00409671 488.821 
708 1 0.0447234 -0.00389631 0.00371446 422.625 
886 1 0.0466457 -0.00466918 0.00373368 393.952 
1181 1 0.0478672 -0.0031672 0.00257964 389.115 
7 1 0.000999995 -0.00224926 0.00351349 334.884 
194 1 0.00444504 -0.00241389 0.00266259 376.289 
824 1 0.00663811 -0.002199 0.00250483 388.83 
850 1 0.00789364 -0.0024833 0.00403545 409.912 
520 1 0.00878403 -0.00181657 0.00236061 394.872 
1122 1 0.011365 -0.00295271 0.00246086 409.725 
1071 1 0.0110248 -0.00157098 0.0038662 463.845 
1326 1 0.0128951 -0.00189142 0.00319063 427.126 
592 1 0.0149515 -0.00128289 0.00280888 422.556 
251 1 0.0169801 -0.001426 0.00247444 389.858 
702 1 0.0161354 -0.00228746 0.00406953 390.596 
1149 1 0.0180125 -0.00280077 0.00358607 457.147 
379 1 0.0189674 -0.00158635 0.00231587 389.342 
1284 1 0.0210353 -0.00176092 0.00269408 438.876 
794 1 0.0227832 -0.00284188 0.00238658 423.108 
448 1 0.0225297 -0.0013417 0.0039554 493.339 
1114 1 0.0242126 -0.00239472 0.00371208 494.257 
1335 1 0.0270199 -0.00120829 0.00282432 471.918 
687 1 0.0291767 -0.00168212 0.00229324 423.553 
753 1 0.0287052 -0.00236798 0.00411184 517.984 
628 1 0.0312942 -0.00143576 0.00223057 364.308 
937 1 0.0323336 -0.00265285 0.00342984 445.125 
637 1 0.0355118 -0.00215918 0.00284971 421.928 
998 1 0.0373732 -0.001489 0.00314284 414.233 
128 1 0.0393168 -0.00208354 0.00264561 384.52 
871 1 0.0411969 -0.00260098 0.00308983 366.388 
992 1 0.0426257 -0.00120919 0.00294356 385.375 
587 1 0.0438385 -0.00269671 0.00238109 401.243 
710 1 0.0445866 -0.00189194 0.0040522 478.229 
512 1 0.0461727 -0.00207084 0.00270327 344.927 
21 1 0.0478069 -0.00170423 0.00394202 469.486 
1170 1 0.0495766 -0.00258666 0.00344025 421.15 
822 1 0.000999987 -0.000473589 0.00259319 325.941 
109 1 0.0024542 -0.000832872 0.00391839 369.405 
528 1 0.00578114 -0.000842966 0.00394346 436.996 
242 1 0.00411277 -0.000225061 0.00285187 355.393 
144 1 0.00763281 -0.000245222 0.00300108 395.328 
1192 1 0.00914761 -0.000927255 0.00411472 445.997 
419 1 0.00945075 0.000512878 0.0026542 397.883 
412 1 0.0112445 -0.000305026 0.0023172 342.363 
1076 1 0.0126516 8.4254e-06 0.00379379 459.988 
62 1 0.0149188 0.000712616 0.0026792 426.322 
296 1 0.0169126 0.000567618 0.00261911 421.843 
1125 1 0.0179476 -0.000535511 0.00398153 451.17 
229 1 0.0189022 0.000404401 0.0024965 417.672 
1121 1 0.0207436 0.000143193 0.00323189 444.31 
1269 1 0.0233602 0.000450973 0.00361969 494.333 
182 1 0.0248598 -0.000777839 0.00272881 383.358 
438 1 0.0259157 0.000919027 0.00280466 462.33 
1194 1 0.0286065 0.000232978 0.00237905 421.851 
896 1 0.0318096 -0.000830484 0.00406577 489.07 
1030 1 0.0305119 0.000242498 0.00298658 430.364 
334 1 0.033172 -0.000725086 0.00260031 331.704 
19 1 0.0356439 -0.00022773 0.00234772 421.649 
65 1 0.0377027 0.000305464 0.00232351 401.178 
1120 1 0.0390534 -0.000489579 0.00382456 464.016 
1079 1 0.0395763 0.00096548 0.00255594 399.225 
1268 1 0.0407291 -0.00066785 0.0026123 394.921 
267 1 0.0425149 0.000767667 0.00266122 386.355 
307 1 0.0436758 2.84904e-05 0.00411238 481.694 
640 1 0.0445885 -0.000664407 0.00247324 409.796 
1235 1 0.0459945 0.00043435 0.00337651 395.644 
559 1 0.0474154 -0.000541394 0.0023621 344.018 
70 1 0.0493083 -0.000516063 0.00336394 420.708 
777 1 0.000999995 0.00110825 0.00381703 325.002 
471 1 0.000999996 0.00219067 0.00213525 318.158 
1043 1 0.00259936 0.0010612 0.00261711 345.294 
1165 1 0.0043985 0.00192522 0.00248846 364.942 
1342 1 0.00615918 0.00122393 0.00312734 386.366 
948 1 0.00824989 0.00209418 0.00238418 359.146 
73 1 0.00954494 0.00198347 0.0040064 428.768 
505 1 0.0109079 0.00187772 0.00253671 354.034 
921 1 0.0128894 0.00162969 0.00264707 359.944 
698 1 0.0148031 0.00263621 0.00214408 396.723 
542 1 0.0161275 0.00214771 0.00356089 407.846 
202 1 0.0179548 0.00149021 0.00405531 480.709 
1312 1 0.0198177 0.00190183 0.00345535 464.502 
1100 1 0.0218928 0.00199069 0.0026682 437.823 
902 1 0.024654 0.0020511 0.00386609 480.06 
715 1 0.0275718 0.00203697 0.00271739 456.897 
209 1 0.0292263 0.00157551 0.00374179 484.763 
68 1 0.030945 0.00242399 0.00317064 426.568 
189 1 0.0323332 0.0010903 0.00262827 378.843 
122 1 0.0331342 0.00221269 0.00408336 434.801 
1112 1 0.0343195 0.0011875 0.00284081 395.015 
1259 1 0.0371473 0.00244187 0.00221728 416.51 
570 1 0.0366618 0.0011466 0.00380976 479.784 
1070 1 0.0392343 0.0028996 0.00293307 372.063 