ITEM: TIMESTEP
18800000
ITEM: NUMBER OF ATOMS
5000
ITEM: BOX BOUNDS mm mm mm
0 0.1
-0.015 0.015
0 0.3
ITEM: ATOMS id type x y z f_Temp[0] 
977 1 0.00102825 -0.014 0.000999993 301.721 
581 1 0.00280538 -0.013082 0.000999998 300 
980 1 0.00536401 -0.0139934 0.000999992 303.957 
1252 1 0.00736681 -0.0139976 0.000999998 300 
648 1 0.00943464 -0.014 0.000999991 306.86 
1049 1 0.0114353 -0.0139953 0.000999998 300 
585 1 0.0133901 -0.013565 0.000999998 300 
453 1 0.0153494 -0.0139698 0.000999997 301.994 
812 1 0.0173493 -0.0139998 0.000999993 308.801 
1111 1 0.0195007 -0.0134438 0.000999984 309.071 
713 1 0.021422 -0.014 0.000999994 306.209 
1065 1 0.0234048 -0.014 0.00126756 303.543 
82 1 0.0265155 -0.0139931 0.000999994 310.72 
383 1 0.0285156 -0.014 0.000999992 308.592 
930 1 0.030521 -0.014 0.000999997 305.929 
936 1 0.0322405 -0.014 0.00202133 311.1 
1185 1 0.0365621 -0.014 0.000999997 303.11 
961 1 0.0387276 -0.014 0.00158109 311.815 
397 1 0.0415067 -0.014 0.000999998 307.604 
434 1 0.0453634 -0.0139995 0.000999989 305.525 
845 1 0.0473634 -0.013996 0.000999993 302.768 
69 1 0.0493634 -0.014 0.000999998 300 
775 1 0.00100002 -0.0113754 0.000999998 300 
100 1 0.0029795 -0.0110896 0.000999992 305.799 
914 1 0.00557519 -0.0112015 0.00100005 309.44 
80 1 0.00757517 -0.0111953 0.000999991 313.013 
451 1 0.00998402 -0.0120769 0.000999996 314.942 
796 1 0.00840292 -0.0126653 0.00207425 307.595 
693 1 0.0116631 -0.012314 0.00206038 325.254 
1317 1 0.0131863 -0.0115688 0.000999987 320.583 
915 1 0.0160944 -0.0121103 0.000999994 311.846 
410 1 0.0190455 -0.011496 0.000999996 311.206 
830 1 0.0224371 -0.0122702 0.000999998 300.795 
320 1 0.0247898 -0.0125822 0.000999992 312.73 
112 1 0.0274126 -0.0122056 0.000999996 316.311 
75 1 0.0305709 -0.0120006 0.000999993 315.02 
44 1 0.0325472 -0.012308 0.000999993 310.13 
903 1 0.0346614 -0.0124727 0.000999987 319.749 
501 1 0.0399655 -0.0125406 0.000999994 317.189 
606 1 0.0381813 -0.0121244 0.00200969 332.12 
895 1 0.0424953 -0.0112468 0.000999991 321.654 
98 1 0.0440827 -0.0124633 0.000999998 309.556 
591 1 0.046362 -0.0121897 0.000999998 300 
260 1 0.0483399 -0.0113954 0.000999988 317.984 
341 1 0.00236835 -0.00912792 0.000999989 307.622 
781 1 0.00434315 -0.00962605 0.00099999 312.634 
163 1 0.00630249 -0.00922482 0.000999992 316.835 
180 1 0.00969329 -0.0104144 0.00207298 344.266 
657 1 0.0113778 -0.0106424 0.000999994 315.679 
479 1 0.0130888 -0.00957115 0.00099999 325.463 
1334 1 0.0156328 -0.00933789 0.000999989 332.691 
236 1 0.0173021 -0.0105161 0.00100003 327.301 
463 1 0.0189969 -0.0094543 0.000999987 331.427 
1058 1 0.020961 -0.0109208 0.000999997 309.428 
214 1 0.021988 -0.00920459 0.000999991 331.735 
48 1 0.0236592 -0.010687 0.000999996 321.774 
1001 1 0.0256579 -0.0107646 0.000999989 319.16 
157 1 0.0275721 -0.0101849 0.00099999 336.441 
154 1 0.0295703 -0.010269 0.000999998 333.958 
849 1 0.0316899 -0.010127 0.000999998 305.097 
986 1 0.0337356 -0.0106994 0.000999992 325.78 
352 1 0.0353603 -0.00937906 0.000999998 333.282 
391 1 0.037078 -0.0107965 0.00099999 330.661 
828 1 0.0380495 -0.00904828 0.000999991 343.42 
1302 1 0.0391669 -0.010707 0.000999988 328.52 
1153 1 0.0410033 -0.00991491 0.000999992 334.136 
1029 1 0.0435086 -0.00935559 0.000999995 327.856 
734 1 0.0450013 -0.0106867 0.000999997 313.355 
168 1 0.0467898 -0.0104128 0.001852 327.884 
673 1 0.0479253 -0.00900397 0.000999991 327.781 
230 1 0.00208414 -0.00710001 0.000999993 316.067 
962 1 0.00400567 -0.00765473 0.000999989 322.661 
829 1 0.00807393 -0.0082964 0.000999989 330.324 
409 1 0.0100683 -0.00814704 0.00100015 327.188 
524 1 0.0120481 -0.00786324 0.000999994 322.842 
1221 1 0.0140493 -0.00781584 0.000999998 304.835 
1092 1 0.0173393 -0.0086903 0.00181755 356.342 
461 1 0.016624 -0.00701102 0.000999992 330.521 
1062 1 0.0197951 -0.00762048 0.000999986 351.654 
790 1 0.0215614 -0.00748521 0.00192831 379.368 
200 1 0.0233297 -0.00737885 0.000999993 351.261 
602 1 0.0247258 -0.00899514 0.000999997 318.879 
546 1 0.0254076 -0.0074302 0.00204216 326.982 
1240 1 0.0269157 -0.00822994 0.000999998 310.043 
247 1 0.0292594 -0.00829331 0.00099999 348.631 
973 1 0.0315646 -0.00811889 0.00099999 335.984 
1319 1 0.0334732 -0.00871669 0.000999992 336.367 
947 1 0.0365133 -0.00779137 0.00138712 317.67 
238 1 0.0398083 -0.00744564 0.000999998 325.87 
162 1 0.0418495 -0.00748748 0.000999997 316.031 
367 1 0.0444121 -0.00769988 0.0016651 328.69 
1274 1 0.0459344 -0.00881346 0.000999986 341.34 
1074 1 0.0498514 -0.00837778 0.000999998 300 
28 1 0.0010002 -0.00541922 0.000999994 309.301 
956 1 0.00299498 -0.00525852 0.000999998 300 
134 1 0.00500411 -0.00536152 0.000999994 330.515 
825 1 0.00684751 -0.00671657 0.000999995 328.652 
976 1 0.00894151 -0.00649438 0.000999994 341.09 
169 1 0.0109715 -0.00601028 0.000999993 340.102 
556 1 0.0129962 -0.00610228 0.000999995 341.279 
421 1 0.0149261 -0.00609382 0.001525 346.631 
1217 1 0.0184323 -0.00615665 0.000999998 335.229 
1325 1 0.0210605 -0.00573696 0.000999998 300 
496 1 0.0230199 -0.00528279 0.000999996 356.174 
639 1 0.024956 -0.005784 0.00099999 352.02 
1151 1 0.0269057 -0.0062297 0.000999984 351.982 
443 1 0.0289804 -0.0054504 0.000999998 300 
1231 1 0.0310306 -0.00545219 0.000999998 300 
146 1 0.0303193 -0.00698151 0.00207498 377.249 
1290 1 0.0330366 -0.00676492 0.000999997 326.261 
1075 1 0.0353259 -0.00621403 0.000999995 326.47 
618 1 0.038025 -0.00654034 0.000999998 307.691 
83 1 0.0399098 -0.00544822 0.000999985 349.205 
974 1 0.0424605 -0.00544572 0.000999991 345.772 
1289 1 0.0449382 -0.00588859 0.000999992 336.956 
772 1 0.0466402 -0.00609637 0.0020296 362.964 
530 1 0.0482999 -0.00652692 0.000999994 329.955 
283 1 0.00371064 -0.00338744 0.000999998 300 
750 1 0.00569461 -0.00311856 0.000999998 300.004 
234 1 0.00689912 -0.00471724 0.000999994 341.185 
1025 1 0.00808674 -0.00310791 0.000999998 300 
139 1 0.00957667 -0.00451693 0.000999998 300 
791 1 0.0119528 -0.0041857 0.000999985 355.811 
402 1 0.0153626 -0.004214 0.000999994 341.591 
1087 1 0.017357 -0.00447035 0.000999991 350.639 
519 1 0.0193899 -0.00431182 0.000999993 356.389 
275 1 0.0216938 -0.00378558 0.000999994 341.344 
142 1 0.0249492 -0.00393316 0.00175782 372.722 
90 1 0.0267754 -0.00423396 0.000999996 344.652 
492 1 0.032699 -0.00434362 0.000999993 334.743 
749 1 0.0350091 -0.00423928 0.000999994 338.93 
1187 1 0.0369358 -0.00484893 0.000999997 319.574 
175 1 0.0402006 -0.00358298 0.00166048 363.864 
1050 1 0.0420853 -0.00347573 0.000999995 327.099 
846 1 0.0439728 -0.00413701 0.000999988 337.556 
424 1 0.0456873 -0.00431841 0.00201368 344.656 
1243 1 0.0474114 -0.00430605 0.000999998 326.761 
3721 1 0.0493439 -0.00482097 0.000999988 323.839 
77 1 0.00106449 -0.00207647 0.000999998 300 
37 1 0.00269634 -0.00135299 0.00200246 339.71 
1108 1 0.00442621 -0.00130241 0.000999983 338.052 
385 1 0.0074663 -0.0011745 0.000999988 344.578 
89 1 0.0100508 -0.00255555 0.000999998 300 
318 1 0.0118586 -0.00167902 0.000999998 326.999 
32 1 0.0138228 -0.00205531 0.000999998 323.91 
964 1 0.0158217 -0.00212183 0.000999998 318.18 
1180 1 0.0177825 -0.00251614 0.000999993 337.577 
885 1 0.0201852 -0.00247261 0.000999997 344.522 
264 1 0.0220832 -0.00158202 0.000999986 367.191 
258 1 0.0241116 -0.00228266 0.001 376.906 
291 1 0.0258098 -0.00110755 0.000999998 330.141 
1052 1 0.0282802 -0.00291658 0.000999992 364.423 
486 1 0.0304223 -0.00274938 0.000999993 348.656 
401 1 0.0328101 -0.00186878 0.000999996 324.817 
91 1 0.0348112 -0.00186302 0.00099999 339.384 
1248 1 0.0364864 -0.00291987 0.00127711 328.031 
1196 1 0.0384654 -0.00283657 0.000999995 325.001 
351 1 0.0409167 -0.00183629 0.000999995 333.861 
1003 1 0.0429073 -0.00158971 0.000999997 324.944 
545 1 0.0452833 -0.00262575 0.000999997 329.737 
31 1 0.0472197 -0.00212533 0.000999991 322.603 
1027 1 0.0491105 -0.00283465 0.000999996 308.216 
620 1 0.00150677 0.000624044 0.000999984 318.617 
817 1 0.00370976 0.000569621 0.000999998 300 
127 1 0.00591125 -0.000406584 0.00199601 372.637 
306 1 0.00756563 0.000823028 0.000999994 324.869 
167 1 0.00960301 -0.000600847 0.000999992 347.342 
721 1 0.0132144 -0.000384327 0.00191523 389.905 
33 1 0.0157868 -0.000111413 0.000999998 300 
522 1 0.0178037 -0.00035024 0.000999998 300 
1330 1 0.0201726 -0.000472055 0.000999998 300 
624 1 0.0239822 -0.000286865 0.000999988 361.84 
799 1 0.0222849 0.000162791 0.00195755 396.945 
644 1 0.0278053 -0.000973797 0.000999988 370.482 
181 1 0.0267602 0.000746171 0.000999994 363.419 
289 1 0.0300684 -0.000444246 0.000999989 351.208 
899 1 0.0320249 -2.93762e-05 0.000999997 321.516 
184 1 0.0341146 1.68851e-05 0.000999998 304.161 
1191 1 0.0369446 -0.000988237 0.000999998 310.389 
625 1 0.0395876 -0.000291074 0.000999998 317.316 
250 1 0.0417007 7.81936e-06 0.000999996 330.104 
1247 1 0.0440456 0.000574417 0.000999991 335.05 
518 1 0.045939 -0.000588995 0.000999992 337.995 
198 1 0.0476838 0.000898638 0.000999998 300 
527 1 0.0488465 -0.000852146 0.000999995 312.517 
904 1 0.0494914 0.00083641 0.00185608 335.51 
305 1 0.00264916 0.00226565 0.00100002 324.196 
408 1 0.00557638 0.00129512 0.000999993 342.756 
1037 1 0.00643218 0.00282586 0.00196146 363.076 
1054 1 0.00968458 0.00225442 0.000999996 323.176 
310 1 0.0118961 0.00105158 0.000999998 308.74 
364 1 0.0129022 0.00293552 0.000999998 315.041 
392 1 0.0139525 0.00123354 0.000999991 346.129 
430 1 0.0169059 0.00174167 0.000999993 348.296 
723 1 0.018996 0.00172789 0.000999992 343.068 
279 1 0.0209923 0.00135248 0.000999998 300 
1099 1 0.0248586 0.00295496 0.000999993 356.831 
1044 1 0.0241312 0.00141222 0.00204443 410.54 
1226 1 0.0268526 0.0027672 0.000999989 375.788 
474 1 0.0285332 0.00167963 0.000999992 351.462 
1175 1 0.0304799 0.00146998 0.0014079 363.855 
280 1 0.033244 0.00181831 0.000999998 311.06 
476 1 0.0350733 0.0024588 0.0014934 343.578 
735 1 0.0363974 0.00104339 0.000999985 356.737 
311 1 0.0384834 0.00158561 0.000999987 354.498 
562 1 0.0405308 0.00178272 0.000999989 342.391 
197 1 0.0425283 0.0018813 0.000999995 325.175 
615 1 0.0443907 0.00261031 0.000999986 337.477 
568 1 0.0458138 0.00132471 0.00156747 362.006 
1197 1 0.0497082 0.00263088 0.000999994 332.832 
366 1 0.00100063 0.00383724 0.000999997 305.742 
920 1 0.0043839 0.00326097 0.00099999 325.713 
1036 1 0.00644525 0.00457953 0.000999989 326.056 
314 1 0.00844675 0.00420291 0.000999998 300 
1224 1 0.0104826 0.00408961 0.000999992 334.621 
1124 1 0.0123036 0.0049164 0.000999992 341.468 
1286 1 0.0152051 0.00422662 0.000999983 351.893 
972 1 0.0186014 0.00369399 0.000999996 326.249 
493 1 0.0202753 0.0030119 0.00185588 391.886 
939 1 0.02075 0.00475605 0.000999988 363.204 
923 1 0.0220823 0.00307749 0.000999993 353.045 
241 1 0.0235323 0.00445514 0.00099999 364.949 
322 1 0.0254857 0.00479463 0.00147149 371.888 
485 1 0.0274261 0.00468323 0.000999995 350.635 
814 1 0.0294225 0.00456453 0.000999989 356.962 
1229 1 0.031651 0.00303909 0.000999991 348.879 
879 1 0.0329324 0.00472649 0.000999998 300 
1019 1 0.0354244 0.00436559 0.000999992 341.88 
26 1 0.0374497 0.00408386 0.000999998 300 
946 1 0.0393304 0.00340354 0.000999998 312.285 
1314 1 0.041438 0.0035651 0.000999997 328.087 
300 1 0.0429164 0.00497018 0.000999991 334.237 
757 1 0.0450353 0.00455743 0.000999996 324.264 
121 1 0.0464429 0.00313648 0.000999998 300 
2899 1 0.0491937 0.0045982 0.000999981 340.744 
235 1 0.0481355 0.00327053 0.00205706 368.341 
852 1 0.00147344 0.00578054 0.000999994 303.889 
143 1 0.00359123 0.00509717 0.000999997 319.087 
712 1 0.00611097 0.00655139 0.000999995 317.35 
857 1 0.00765647 0.00583318 0.0020467 334.507 
156 1 0.0101027 0.00606717 0.000999991 331.517 
733 1 0.0125017 0.00690655 0.000999988 339.381 
761 1 0.0142906 0.0060107 0.000999998 300 
1306 1 0.0170989 0.00501409 0.000999991 336.577 
1285 1 0.0165014 0.00696641 0.000999998 307.755 
237 1 0.0189814 0.0056897 0.000999997 332.651 
621 1 0.0222928 0.00602882 0.00099999 349.026 
1134 1 0.0242725 0.00631312 0.000999989 353.42 
1154 1 0.028986 0.0067722 0.000999991 354.578 
332 1 0.0310772 0.00569306 0.000999998 300 
404 1 0.0326452 0.00696578 0.000999994 335.957 
1299 1 0.0344553 0.0061151 0.000999994 334.155 
1088 1 0.0366774 0.00592881 0.000999988 365.516 
54 1 0.0390828 0.00538836 0.000999994 332.021 
176 1 0.0410339 0.00582837 0.000999992 327.692 
544 1 0.0455163 0.00651382 0.000999998 300 
469 1 0.0472716 0.00515104 0.000999995 318.934 
14 1 0.0486979 0.00655309 0.000999996 323.675 
741 1 0.000999996 0.00772368 0.00100003 303.454 
187 1 0.00278473 0.00862649 0.000999991 306.857 
540 1 0.00401709 0.00705129 0.000999987 313.448 
193 1 0.00477676 0.00895843 0.000999998 300 
253 1 0.0068207 0.00842122 0.000999996 312.668 
959 1 0.00850773 0.00730957 0.000999992 320.426 
328 1 0.0114072 0.00885118 0.000999998 300 
718 1 0.0132987 0.00844915 0.0019926 340.812 
978 1 0.0151909 0.00848408 0.000999991 333.676 
488 1 0.0171399 0.00893312 0.000999991 329.223 
847 1 0.0186891 0.00766823 0.000999992 335.388 
473 1 0.0206945 0.00740131 0.000999998 300 
854 1 0.0226507 0.00799697 0.000999991 354.238 
207 1 0.0263751 0.00739619 0.000999998 300.204 
513 1 0.0293352 0.00896057 0.00151575 330.629 
651 1 0.0307733 0.00766986 0.000999989 337.945 
1298 1 0.0326488 0.00875108 0.00190147 330.175 
1244 1 0.0353883 0.00770327 0.00177925 367.81 
611 1 0.0372176 0.00791835 0.000999986 339.419 
730 1 0.0393592 0.00754749 0.000999997 326.489 
835 1 0.0417267 0.00744182 0.00195747 370.575 
110 1 0.0436805 0.00766014 0.000999996 324.376 
428 1 0.0469194 0.00795518 0.000999997 304.007 
174 1 0.0497579 0.00825521 0.000999987 332.707 
205 1 0.00100021 0.00991911 0.000999985 302.284 
177 1 0.00272024 0.0104073 0.001908 304.397 
674 1 0.00638342 0.0103728 0.000999989 309.316 
79 1 0.00942032 0.00908922 0.000999998 316.339 
1320 1 0.0104938 0.0103921 0.00207241 325.466 
779 1 0.012119 0.0108494 0.00100017 318.182 
292 1 0.0139551 0.0100566 0.000999991 324.414 
11 1 0.015904 0.0105056 0.00099999 323.06 
50 1 0.0188973 0.00950435 0.00176508 321.689 
1042 1 0.0207436 0.00942881 0.000999998 305.87 
694 1 0.0226224 0.0101149 0.000999989 336.565 
147 1 0.0240051 0.00907428 0.00200252 371.557 
983 1 0.0256274 0.00967679 0.000999989 333.384 
798 1 0.0278229 0.0101635 0.000999996 312.917 
966 1 0.0311269 0.00968438 0.000999995 316.624 
1186 1 0.033815 0.0102344 0.000999995 322.147 
1091 1 0.035782 0.00950263 0.000999993 335.444 
93 1 0.0382867 0.00960858 0.000999998 327.534 
1160 1 0.0399631 0.0106994 0.000999988 312.729 
575 1 0.0411762 0.00910919 0.00099999 328.603 
985 1 0.04312 0.00957997 0.000999996 313.16 
359 1 0.0453271 0.00941899 0.000999995 318.555 
969 1 0.0472618 0.00992566 0.000999998 306.848 
78 1 0.0492059 0.0103951 0.000999992 306.714 
363 1 0.000999994 0.0125472 0.000999995 300.534 
811 1 0.00296408 0.0122886 0.00127469 301.955 
743 1 0.00449491 0.0110312 0.000999993 303.352 
1251 1 0.00600936 0.0123375 0.000999995 302.911 
72 1 0.009055 0.0112752 0.000999994 309.075 
1313 1 0.0110293 0.0125265 0.00099999 308.39 
654 1 0.0139151 0.0120596 0.000999989 316.747 
271 1 0.0178306 0.0110468 0.000999998 300 
15 1 0.0191506 0.0123316 0.00178965 315.835 
215 1 0.0208644 0.0116686 0.00099999 317.845 
420 1 0.0226323 0.0118976 0.00190669 323.702 
449 1 0.0244554 0.012149 0.000999998 307.692 
39 1 0.0263672 0.0115349 0.000999992 315.197 
188 1 0.0295985 0.0111181 0.000999991 322.329 
425 1 0.028129 0.0124814 0.000999992 307.012 
1095 1 0.0312193 0.01229 0.000999998 300.001 
1227 1 0.033219 0.0122468 0.000999995 311.037 
119 1 0.0353449 0.0122914 0.000999998 300 
650 1 0.0369685 0.0111127 0.000999989 321.793 
1138 1 0.0386186 0.0122428 0.000999992 313.844 
979 1 0.0405124 0.0124274 0.00184388 320.056 
316 1 0.0424182 0.0117034 0.000999998 303.454 
1297 1 0.0443447 0.0111611 0.00099999 315.395 
1206 1 0.046545 0.0118446 0.000999993 310.036 
380 1 0.0484365 0.0121497 0.00157368 303.775 
347 1 0.00209295 0.014 0.00183359 300.513 
309 1 0.00396196 0.014 0.000999998 300.762 
1130 1 0.00566062 0.014 0.00205571 302.19 
807 1 0.00735927 0.014 0.000999991 301.7 
114 1 0.00931258 0.0135525 0.000999993 303.201 
240 1 0.0123816 0.014 0.000999997 303.99 
672 1 0.0144052 0.014 0.000999998 302.873 
729 1 0.0161846 0.014 0.00191321 310.899 
758 1 0.0179409 0.0137147 0.000999996 306.941 
1038 1 0.0199206 0.014 0.000999993 306.147 
81 1 0.0217812 0.0139926 0.00173331 311.577 
676 1 0.0236419 0.0139761 0.000999994 305.97 
534 1 0.0264775 0.0137777 0.000999998 300 
526 1 0.0299137 0.014 0.000999997 301.934 
101 1 0.0322566 0.014 0.000999994 306.134 
1304 1 0.0342566 0.014 0.00099999 307.899 
1171 1 0.0370656 0.013911 0.000999998 300 
442 1 0.0396097 0.014 0.000999989 309.711 
348 1 0.0423187 0.0137128 0.000999998 300 
626 1 0.0443208 0.014 0.000999994 302.874 
935 1 0.0466503 0.0139486 0.000999998 300 
766 1 0.0489339 0.014 0.000999995 302.203 
728 1 0.00392052 -0.014 0.00238429 304.915 
1249 1 0.00256444 -0.0132265 0.00363435 311.991 
929 1 0.00450257 -0.0131416 0.00412055 320.865 
1137 1 0.00634469 -0.014 0.00274303 310.045 
1097 1 0.0078871 -0.0133954 0.0038635 329.187 
598 1 0.0095839 -0.014 0.0029944 318.668 
1056 1 0.0115791 -0.014 0.0031329 320.301 
747 1 0.0135702 -0.014 0.00294461 311.583 
1337 1 0.0162623 -0.0135725 0.00273454 306.681 
789 1 0.0184969 -0.014 0.00263796 321.482 
894 1 0.0203583 -0.014 0.00336963 322.477 
507 1 0.0220847 -0.0132262 0.00272104 320.056 
170 1 0.0250702 -0.014 0.00238244 313.367 
993 1 0.0240141 -0.0139722 0.00408059 336.635 
1048 1 0.0275175 -0.0134232 0.00263438 324.678 
1267 1 0.0262053 -0.014 0.00402915 310.025 
43 1 0.0295 -0.014 0.00274091 316.053 
1169 1 0.0312288 -0.014 0.00374657 333.903 
1008 1 0.0331407 -0.0134146 0.0037886 323.442 
1168 1 0.0342309 -0.014 0.00221734 313.563 
288 1 0.0350354 -0.014 0.00404837 323.248 
158 1 0.0375146 -0.014 0.00317125 305.809 
47 1 0.0406544 -0.0133617 0.00269294 328.422 
274 1 0.0425983 -0.014 0.00386091 323.359 
652 1 0.0441287 -0.014 0.00257328 313.075 
689 1 0.0463276 -0.014 0.00275222 308.308 
1184 1 0.0483371 -0.014 0.00274697 307.728 
1026 1 0.000999991 -0.0126891 0.00251021 305.147 
261 1 0.000999995 -0.011326 0.00397369 310.012 
1343 1 0.00301409 -0.0113076 0.00397475 324.738 
87 1 0.00423913 -0.0120312 0.0022356 305.779 
355 1 0.00504244 -0.0112267 0.00391614 335.133 
1208 1 0.00656471 -0.0120234 0.00253146 308.106 
22 1 0.00843274 -0.011079 0.00371936 346.8 
378 1 0.0101037 -0.0120919 0.00329275 329.152 
1220 1 0.0128444 -0.012285 0.00367402 324.976 
4 1 0.0145348 -0.0124065 0.00221646 313.986 
336 1 0.015519 -0.0118383 0.00386221 320.349 
622 1 0.0176585 -0.0122282 0.00224094 312.355 
1077 1 0.0174136 -0.0112732 0.00416425 346.884 
736 1 0.0189909 -0.012447 0.00379728 366.827 
681 1 0.0203697 -0.0122626 0.00236006 309.235 
859 1 0.022665 -0.0115618 0.00410205 359.341 
806 1 0.0239103 -0.0124121 0.00278814 337.972 
1152 1 0.0260548 -0.0120702 0.00246214 336.316 
999 1 0.0279366 -0.0119296 0.00389669 341.442 
1316 1 0.0289735 -0.011821 0.0021899 332.894 
797 1 0.029953 -0.0124734 0.00395094 338.204 
1264 1 0.0315301 -0.0122716 0.00273395 311.249 
20 1 0.0336445 -0.0118753 0.00261523 347.957 
1336 1 0.0350723 -0.0118548 0.00401562 337.829 
1126 1 0.0354465 -0.0110244 0.00213404 336.101 
233 1 0.0359508 -0.0129117 0.00256269 312.441 
450 1 0.0369507 -0.0113847 0.00340195 345.774 
160 1 0.0392319 -0.0123737 0.00369314 361.263 
724 1 0.0409925 -0.0114286 0.00230715 343.493 
876 1 0.0419024 -0.0120667 0.00396995 357.668 
872 1 0.0425493 -0.0128203 0.00223337 310.077 
704 1 0.0449215 -0.0120423 0.00276611 317.387 
945 1 0.0469145 -0.0120959 0.00292509 326.265 
221 1 0.0489219 -0.0120878 0.00278378 328.197 
1245 1 0.000999993 -0.00928449 0.00395345 315.866 
744 1 0.00199872 -0.0103191 0.00256345 314.576 
635 1 0.00390569 -0.00984746 0.00293895 328.755 
136 1 0.00590224 -0.00974057 0.00289044 336.708 
418 1 0.00782929 -0.00974667 0.00235529 338.249 
1057 1 0.0112144 -0.00913699 0.00230648 337.942 
259 1 0.0102857 -0.010154 0.00396539 379.197 
1318 1 0.0125372 -0.0106075 0.00262928 354.302 
725 1 0.0121185 -0.00937428 0.00414712 411.983 
1205 1 0.0144017 -0.00990101 0.00247217 364.809 
422 1 0.0163222 -0.0103914 0.00273907 339.02 
924 1 0.0183927 -0.0103733 0.00267041 352.905 
395 1 0.0200087 -0.0107212 0.00379621 357.958 
1195 1 0.0205045 -0.00947314 0.00231414 336.325 
500 1 0.0225748 -0.0102262 0.0026161 348.034 
213 1 0.0246572 -0.0105577 0.00272838 338.735 
909 1 0.0263344 -0.0095128 0.00242 366.277 
740 1 0.0265318 -0.0105259 0.00413308 384.342 
521 1 0.0284821 -0.00929895 0.00254496 382.722 
997 1 0.0297075 -0.0105331 0.00353251 373.479 
445 1 0.0304806 -0.00911342 0.00235493 367.543 
1261 1 0.0322714 -0.0104207 0.00289093 319.524 
529 1 0.0340991 -0.00964259 0.00265859 359.693 
277 1 0.0355513 -0.00991304 0.00402491 386.821 
124 1 0.0367214 -0.00947922 0.002462 377.396 
960 1 0.0385169 -0.0102744 0.00284128 365.118 
510 1 0.0401572 -0.0106169 0.00393302 407.419 
533 1 0.0434256 -0.0107171 0.00268929 348.812 
552 1 0.044975 -0.00945352 0.0026339 386.15 
697 1 0.0458235 -0.0106606 0.00398403 398.415 
440 1 0.0475928 -0.00981798 0.00358448 369.731 
1021 1 0.0490805 -0.0100354 0.00226562 348.731 
95 1 0.0495155 -0.0105984 0.00413479 378.192 
564 1 0.00099999 -0.00828587 0.00219099 313.302 
1178 1 0.00294431 -0.00812116 0.0026297 319.174 
1005 1 0.00493772 -0.00799531 0.00273643 352.01 
284 1 0.00642498 -0.00807971 0.00407095 375.078 
27 1 0.00807073 -0.00718883 0.00266529 377.249 
344 1 0.00938651 -0.00866083 0.00298457 367.778 
455 1 0.0105623 -0.00708018 0.00263943 383.512 
636 1 0.0124312 -0.00770239 0.00298568 378.749 
1006 1 0.0139625 -0.00858986 0.00391714 413.94 
457 1 0.0154895 -0.00790228 0.00238508 319.271 
719 1 0.0174886 -0.00898444 0.00379015 399.025 
970 1 0.0173748 -0.00710733 0.00303941 375.877 
179 1 0.019032 -0.00819104 0.00275844 384.797 
138 1 0.0218439 -0.00861733 0.00355266 400.041 
818 1 0.0203462 -0.00738063 0.00402971 444.442 
246 1 0.0236322 -0.00852863 0.00260825 349.608 
52 1 0.0251761 -0.00874884 0.00386041 398.773 
788 1 0.0270982 -0.00816529 0.00368523 403.566 
988 1 0.028116 -0.00722336 0.00224411 389.496 
490 1 0.0294674 -0.00792801 0.00361716 421.059 
84 1 0.031579 -0.00882185 0.0040007 443.903 
574 1 0.0326897 -0.00787248 0.00263506 371.777 
1270 1 0.0346324 -0.00763772 0.00222151 364.744 
890 1 0.0361877 -0.00783246 0.00346367 430.388 
51 1 0.0380266 -0.00798128 0.00269142 412.582 
631 1 0.0399048 -0.00892272 0.00234495 338.482 
96 1 0.0393912 -0.00787195 0.00414942 489.018 
511 1 0.0410111 -0.00732224 0.00280826 359.559 
466 1 0.041122 -0.00887299 0.00410041 488.769 
1303 1 0.0421003 -0.00893786 0.00235721 386.227 
958 1 0.0436162 -0.00824038 0.00345969 432.448 
801 1 0.0466159 -0.00823817 0.00279014 391.007 
12 1 0.0485517 -0.00783185 0.00249456 361.899 
1322 1 0.00166231 -0.00652449 0.00286836 332.626 
1341 1 0.00396419 -0.00627271 0.00244508 343.326 
558 1 0.00510905 -0.00651309 0.00406821 394.852 
1255 1 0.00617585 -0.0056989 0.0025853 361.197 
56 1 0.00920399 -0.00554256 0.00273928 399.333 
1328 1 0.0124008 -0.00589791 0.00386145 463.928 
981 1 0.0141383 -0.00669754 0.00326137 390.34 
63 1 0.016488 -0.00538171 0.00255375 397.234 
942 1 0.0197866 -0.00626282 0.00246853 413.165 
1115 1 0.0187325 -0.00616465 0.0041654 478.689 
394 1 0.0204476 -0.00512481 0.00397452 416.892 
433 1 0.0221624 -0.00664013 0.00363846 459.979 
1004 1 0.0238057 -0.00623755 0.0025719 398.729 
957 1 0.0256907 -0.00562412 0.0028533 364.699 
436 1 0.0276169 -0.00518118 0.0025475 409.785 
769 1 0.0283152 -0.00634638 0.0040305 473.67 
141 1 0.0300155 -0.00540323 0.00326521 431.268 
59 1 0.0319484 -0.00601689 0.00271977 386.833 
104 1 0.0339034 -0.00541545 0.00219479 358.849 
489 1 0.0353605 -0.00612222 0.00408883 445.396 
1166 1 0.0366481 -0.00613693 0.00250276 328.198 
58 1 0.0378524 -0.00653306 0.00405974 458.969 
593 1 0.0392466 -0.00639765 0.00263055 385.229 
897 1 0.041185 -0.00533196 0.00253628 398.815 
1 1 0.0428685 -0.00661072 0.0025736 379.496 
759 1 0.0446992 -0.00576291 0.00298167 392.692 
396 1 0.0462771 -0.0066257 0.00392378 440.2 
1234 1 0.0482705 -0.00512445 0.00266 363.668 
3839 1 0.0498275 -0.00635211 0.00292208 393.035 
539 1 0.000999991 -0.00463755 0.00284091 321.796 
502 1 0.0028692 -0.00496099 0.00348449 340.958 
1090 1 0.00241806 -0.00326162 0.00253127 332.301 
666 1 0.00465322 -0.00440221 0.00271947 349.412 
102 1 0.00755571 -0.00396157 0.00273142 392.321 
263 1 0.00952789 -0.00357948 0.00294262 428.125 
659 1 0.0111076 -0.00492458 0.00267413 367.23 
61 1 0.0132155 -0.00474062 0.00244835 394.13 
701 1 0.014857 -0.00485586 0.003585 442.16 
968 1 0.0144952 -0.00320426 0.00249262 394.482 
949 1 0.0164875 -0.00336364 0.00242094 381.212 
815 1 0.0184075 -0.00482756 0.00266398 403.586 
941 1 0.0219151 -0.00493099 0.00262965 395.33 
793 1 0.0203805 -0.00364863 0.00260586 403.566 
371 1 0.0217992 -0.00348212 0.00400576 508.079 
437 1 0.0237219 -0.00436751 0.00327611 391.637 
232 1 0.0256883 -0.00374046 0.00360621 426.749 
1053 1 0.0274331 -0.0032043 0.00278871 384.213 
1113 1 0.0294168 -0.00367225 0.0024619 420.505 
239 1 0.0285386 -0.00436099 0.00412155 506.312 
125 1 0.0313661 -0.00411936 0.00247416 383.671 
503 1 0.0305202 -0.00320882 0.00406428 487.744 
685 1 0.0338027 -0.00315327 0.00216831 352.123 
1183 1 0.0329001 -0.00455259 0.00369441 380.434 
607 1 0.0355435 -0.00451931 0.00290681 406.302 
670 1 0.0344352 -0.0033252 0.00406679 489.655 
337 1 0.0372277 -0.00348272 0.00320522 414.371 
1129 1 0.0385362 -0.00458563 0.00217014 370.175 
731 1 0.0397943 -0.0039422 0.00358553 466.872 
571 1 0.0429846 -0.00447594 0.00270542 359.991 
971 1 0.0428698 -0.00304037 0.00409671 469.934 
708 1 0.0447234 -0.00389631 0.00371446 392.262 
886 1 0.0466457 -0.00466918 0.00373368 363.529 
1181 1 0.0478672 -0.0031672 0.00257964 361.337 
7 1 0.000999995 -0.00224926 0.00351349 335.457 
194 1 0.00444504 -0.00241389 0.00266259 373.242 
824 1 0.00663811 -0.002199 0.00250483 380.675 
850 1 0.00789364 -0.0024833 0.00403545 399.949 
520 1 0.00878403 -0.00181657 0.00236061 390.525 
1122 1 0.011365 -0.00295271 0.00246086 402.258 
1071 1 0.0110248 -0.00157098 0.0038662 457.861 
1326 1 0.0128951 -0.00189142 0.00319063 416.932 
592 1 0.0149515 -0.00128289 0.00280888 409.109 
251 1 0.0169801 -0.001426 0.00247444 374.523 
702 1 0.0161354 -0.00228746 0.00406953 371.406 
1149 1 0.0180125 -0.00280077 0.00358607 448.894 
379 1 0.0189674 -0.00158635 0.00231587 379.836 
1284 1 0.0210353 -0.00176092 0.00269408 427.876 
794 1 0.0227832 -0.00284188 0.00238658 415.176 
448 1 0.0225297 -0.0013417 0.0039554 482.715 
1114 1 0.0242126 -0.00239472 0.00371208 487.605 
1335 1 0.0270199 -0.00120829 0.00282432 466.836 
687 1 0.0291767 -0.00168212 0.00229324 414.935 
753 1 0.0287052 -0.00236798 0.00411184 512.947 
628 1 0.0312942 -0.00143576 0.00223057 352.032 
937 1 0.0323336 -0.00265285 0.00342984 427.009 
637 1 0.0355118 -0.00215918 0.00284971 405.876 
998 1 0.0373732 -0.001489 0.00314284 390.322 
128 1 0.0393168 -0.00208354 0.00264561 364.38 
871 1 0.0411969 -0.00260098 0.00308983 341.782 
992 1 0.0426257 -0.00120919 0.00294356 360.021 
587 1 0.0438385 -0.00269671 0.00238109 381.388 
710 1 0.0445866 -0.00189194 0.0040522 460.639 
512 1 0.0461727 -0.00207084 0.00270327 323.774 
21 1 0.0478069 -0.00170423 0.00394202 433.414 
1170 1 0.0495766 -0.00258666 0.00344025 392.058 
822 1 0.000999987 -0.000473589 0.00259319 325.177 
109 1 0.0024542 -0.000832872 0.00391839 370.925 
528 1 0.00578114 -0.000842966 0.00394346 443.193 
242 1 0.00411277 -0.000225061 0.00285187 351.228 
144 1 0.00763281 -0.000245222 0.00300108 388.293 
1192 1 0.00914761 -0.000927255 0.00411472 441.212 
419 1 0.00945075 0.000512878 0.0026542 390.05 
412 1 0.0112445 -0.000305026 0.0023172 334.662 
1076 1 0.0126516 8.42541e-06 0.00379379 447.712 
62 1 0.0149188 0.000712616 0.0026792 413.601 
296 1 0.0169126 0.000567618 0.00261911 409.204 
1125 1 0.0179476 -0.000535511 0.00398153 437.037 
229 1 0.0189022 0.000404401 0.0024965 405.867 
1121 1 0.0207436 0.000143193 0.00323189 431.054 
1269 1 0.0233602 0.000450973 0.00361969 487.055 
182 1 0.0248598 -0.000777839 0.00272881 371.102 
438 1 0.0259157 0.000919027 0.00280466 454.46 
1194 1 0.0286065 0.000232978 0.00237905 411.92 
896 1 0.0318096 -0.000830484 0.00406577 474.257 
1030 1 0.0305119 0.000242498 0.00298658 415.426 
334 1 0.033172 -0.000725086 0.00260031 320.171 
19 1 0.0356439 -0.00022773 0.00234772 405.236 
65 1 0.0377027 0.000305464 0.00232351 380.345 
1120 1 0.0390534 -0.000489579 0.00382456 442.592 
1079 1 0.0395763 0.00096548 0.00255594 377.707 
1268 1 0.0407291 -0.00066785 0.0026123 372.323 
267 1 0.0425149 0.000767667 0.00266122 361.407 
307 1 0.0436758 2.84905e-05 0.00411238 466.849 
640 1 0.0445885 -0.000664407 0.00247324 391.33 
1235 1 0.0459945 0.00043435 0.00337651 369.212 
559 1 0.0474154 -0.000541394 0.0023621 323.785 
70 1 0.0493083 -0.000516063 0.00336394 380.778 
777 1 0.000999995 0.00110825 0.00381703 323.685 
471 1 0.000999996 0.00219067 0.00213525 316.959 
1043 1 0.00259936 0.0010612 0.00261711 342.654 
1165 1 0.0043985 0.00192522 0.00248846 363.044 
1342 1 0.00615918 0.00122393 0.00312734 381.894 
948 1 0.00824989 0.00209418 0.00238418 351.491 
73 1 0.00954494 0.00198347 0.0040064 421.259 
505 1 0.0109079 0.00187772 0.00253671 343.312 
921 1 0.0128894 0.00162969 0.00264707 347.114 
698 1 0.0148031 0.00263621 0.00214408 387.193 
542 1 0.0161275 0.00214771 0.00356089 393.371 
202 1 0.0179548 0.00149021 0.00405531 471.169 
1312 1 0.0198177 0.00190183 0.00345535 454.922 
1100 1 0.0218928 0.00199069 0.0026682 428.604 
902 1 0.024654 0.0020511 0.00386609 473.946 
715 1 0.0275718 0.00203697 0.00271739 446.138 
209 1 0.0292263 0.00157551 0.00374179 471.976 
68 1 0.030945 0.00242399 0.00317064 408.387 
189 1 0.0323332 0.0010903 0.00262827 360.22 
122 1 0.0331342 0.00221269 0.00408336 410.031 
1112 1 0.0343195 0.0011875 0.00284081 373.529 
1259 1 0.0371473 0.00244187 0.00221728 401.39 
570 1 0.0366618 0.0011466 0.00380976 456.897 