ITEM: TIMESTEP
19500000
ITEM: NUMBER OF ATOMS
5000
ITEM: BOX BOUNDS mm mm mm
0 0.1
-0.015 0.015
0 0.3
ITEM: ATOMS id type x y z f_Temp[0] 
977 1 0.00102825 -0.014 0.000999993 301.8 
581 1 0.00280538 -0.013082 0.000999998 300 
980 1 0.00536401 -0.0139934 0.000999992 304.126 
1252 1 0.00736681 -0.0139976 0.000999998 300 
648 1 0.00943464 -0.014 0.000999991 307.089 
1049 1 0.0114353 -0.0139953 0.000999998 300 
585 1 0.0133901 -0.013565 0.000999998 300 
453 1 0.0153494 -0.0139698 0.000999997 302.134 
812 1 0.0173493 -0.0139998 0.000999993 308.994 
1111 1 0.0195007 -0.0134438 0.000999984 309.288 
713 1 0.021422 -0.014 0.000999994 306.495 
1065 1 0.0234048 -0.014 0.00126756 303.757 
82 1 0.0265155 -0.0139931 0.000999994 311.244 
383 1 0.0285156 -0.014 0.000999992 309 
930 1 0.030521 -0.014 0.000999997 306.264 
936 1 0.0322405 -0.014 0.00202133 311.686 
1185 1 0.0365621 -0.014 0.000999997 303.481 
961 1 0.0387276 -0.014 0.00158109 312.669 
397 1 0.0415067 -0.014 0.000999998 308.343 
434 1 0.0453634 -0.0139995 0.000999989 306.21 
845 1 0.0473634 -0.013996 0.000999993 303.225 
69 1 0.0493634 -0.014 0.000999998 300 
775 1 0.00100002 -0.0113754 0.000999998 300 
100 1 0.0029795 -0.0110896 0.000999992 306.018 
914 1 0.00557519 -0.0112015 0.00100005 309.865 
80 1 0.00757517 -0.0111953 0.000999991 313.456 
451 1 0.00998402 -0.0120769 0.000999996 315.491 
796 1 0.00840292 -0.0126653 0.00207425 308.008 
693 1 0.0116631 -0.012314 0.00206038 325.912 
1317 1 0.0131863 -0.0115688 0.000999987 321.026 
915 1 0.0160944 -0.0121103 0.000999994 312.321 
410 1 0.0190455 -0.011496 0.000999996 311.67 
830 1 0.0224371 -0.0122702 0.000999998 300.868 
320 1 0.0247898 -0.0125822 0.000999992 313.224 
112 1 0.0274126 -0.0122056 0.000999996 317.107 
75 1 0.0305709 -0.0120006 0.000999993 315.727 
44 1 0.0325472 -0.012308 0.000999993 310.676 
903 1 0.0346614 -0.0124727 0.000999987 320.705 
501 1 0.0399655 -0.0125406 0.000999994 318.232 
606 1 0.0381813 -0.0121244 0.00200969 333.846 
895 1 0.0424953 -0.0112468 0.000999991 323.181 
98 1 0.0440827 -0.0124633 0.000999998 310.722 
591 1 0.0463624 -0.0121895 0.000999998 300 
260 1 0.0483399 -0.0113954 0.000999988 319.814 
341 1 0.00236835 -0.00912792 0.000999989 307.832 
781 1 0.00434315 -0.00962605 0.00099999 312.989 
163 1 0.00630249 -0.00922482 0.000999992 317.27 
180 1 0.00969329 -0.0104144 0.00207298 345.483 
657 1 0.0113778 -0.0106424 0.000999994 316.247 
479 1 0.0130888 -0.00957115 0.00099999 325.89 
1334 1 0.0156328 -0.00933789 0.000999989 333.283 
236 1 0.0173021 -0.0105161 0.00100003 328.165 
463 1 0.0189969 -0.0094543 0.000999987 332.249 
1058 1 0.020961 -0.0109208 0.000999997 309.846 
214 1 0.021988 -0.00920459 0.000999991 332.545 
48 1 0.0236592 -0.010687 0.000999996 322.716 
1001 1 0.0256579 -0.0107646 0.000999989 319.867 
157 1 0.0275721 -0.0101849 0.00099999 337.586 
154 1 0.0295703 -0.010269 0.000999998 335.075 
849 1 0.0316899 -0.010127 0.000999998 305.551 
986 1 0.0337356 -0.0106994 0.000999992 326.81 
352 1 0.0353603 -0.00937906 0.000999998 334.973 
391 1 0.037078 -0.0107965 0.00099999 332.139 
828 1 0.0380495 -0.00904828 0.000999991 345.039 
1302 1 0.0391669 -0.010707 0.000999988 329.845 
1153 1 0.0410033 -0.00991491 0.000999992 335.81 
1029 1 0.0435086 -0.00935559 0.000999995 329.605 
734 1 0.0450013 -0.0106867 0.000999997 314.864 
168 1 0.0467898 -0.0104128 0.001852 330.71 
673 1 0.0479253 -0.00900397 0.000999991 330.328 
230 1 0.00208414 -0.00710001 0.000999993 316.337 
962 1 0.00400567 -0.00765473 0.000999989 323.06 
829 1 0.00807393 -0.0082964 0.000999989 330.905 
409 1 0.0100683 -0.00814704 0.00100015 328.016 
524 1 0.0120481 -0.00786324 0.000999994 323.408 
1221 1 0.0140493 -0.00781584 0.000999998 305.132 
1092 1 0.0173393 -0.0086903 0.00181755 357.44 
461 1 0.016624 -0.00701102 0.000999992 331.322 
1062 1 0.0197951 -0.00762048 0.000999986 352.553 
790 1 0.0215614 -0.00748521 0.00192831 380.302 
200 1 0.0233297 -0.00737885 0.000999993 352.092 
602 1 0.0247258 -0.00899514 0.000999997 319.729 
546 1 0.0254076 -0.0074302 0.00204216 328.257 
1240 1 0.0269157 -0.00822994 0.000999998 310.652 
247 1 0.0292594 -0.00829331 0.00099999 349.997 
973 1 0.0315646 -0.00811889 0.00099999 337.433 
1319 1 0.0334732 -0.00871669 0.000999992 337.934 
947 1 0.0365133 -0.00779137 0.00138712 319.343 
238 1 0.0398083 -0.00744564 0.000999998 327.687 
162 1 0.0418495 -0.00748746 0.000999997 317.626 
367 1 0.0444121 -0.00769988 0.0016651 331.282 
1274 1 0.0459344 -0.00881346 0.000999986 343.814 
1074 1 0.0498516 -0.00837792 0.000999998 300 
28 1 0.0010002 -0.00541922 0.000999994 309.481 
956 1 0.00299501 -0.00525859 0.000999998 300 
134 1 0.00500411 -0.00536152 0.000999994 331.155 
825 1 0.00684751 -0.00671657 0.000999995 329.13 
976 1 0.00894151 -0.00649438 0.000999994 341.569 
169 1 0.0109715 -0.00601028 0.000999993 341.05 
556 1 0.0129962 -0.00610228 0.000999995 342.065 
421 1 0.0149261 -0.00609382 0.001525 347.737 
1217 1 0.0184323 -0.00615665 0.000999998 336.152 
1325 1 0.0210606 -0.00573722 0.000999998 300 
496 1 0.0230199 -0.00528279 0.000999996 357.354 
639 1 0.024956 -0.005784 0.00099999 353.216 
1151 1 0.0269057 -0.0062297 0.000999984 353.098 
443 1 0.0289798 -0.00544783 0.000999998 300 
1231 1 0.0310306 -0.00545217 0.000999998 300 
146 1 0.0303193 -0.00698151 0.00207498 379.953 
1290 1 0.0330366 -0.00676492 0.000999997 327.994 
1075 1 0.0353259 -0.00621403 0.000999995 327.955 
618 1 0.038025 -0.00654034 0.000999998 308.58 
83 1 0.0399098 -0.00544822 0.000999985 351.48 
974 1 0.0424605 -0.00544572 0.000999991 348.027 
1289 1 0.0449382 -0.00588859 0.000999992 339.459 
772 1 0.0466402 -0.00609637 0.0020296 366.749 
530 1 0.0482999 -0.00652692 0.000999994 332.649 
283 1 0.0037106 -0.00338743 0.000999998 300 
750 1 0.00569459 -0.00311855 0.000999998 300.004 
234 1 0.00689912 -0.00471724 0.000999994 341.83 
1025 1 0.00808679 -0.00310796 0.000999998 300 
139 1 0.00957647 -0.00451693 0.000999998 300 
791 1 0.0119528 -0.0041857 0.000999985 356.696 
402 1 0.0153626 -0.004214 0.000999994 342.629 
1087 1 0.017357 -0.00447035 0.000999991 351.884 
519 1 0.0193899 -0.00431182 0.000999993 357.712 
275 1 0.0216938 -0.00378558 0.000999994 342.334 
142 1 0.0249492 -0.00393316 0.00175782 374.825 
90 1 0.0267754 -0.00423396 0.000999996 346.022 
492 1 0.032699 -0.00434362 0.000999993 336.532 
749 1 0.0350091 -0.00423928 0.000999994 340.85 
1187 1 0.0369358 -0.00484893 0.000999997 321.218 
175 1 0.0402006 -0.00358298 0.00166048 366.765 
1050 1 0.0420853 -0.00347573 0.000999995 328.935 
846 1 0.0439728 -0.00413701 0.000999988 339.998 
424 1 0.0456873 -0.00431841 0.00201368 348.468 
1243 1 0.0474114 -0.00430605 0.000999998 329.722 
3721 1 0.0493439 -0.00482097 0.000999988 326.445 
77 1 0.00106469 -0.00207772 0.000999998 300 
37 1 0.00269634 -0.00135299 0.00200246 340.182 
1108 1 0.00442621 -0.00130241 0.000999983 338.501 
385 1 0.0074663 -0.0011745 0.000999988 345.159 
89 1 0.0100508 -0.00255559 0.000999998 300 
318 1 0.0118586 -0.00167902 0.000999998 327.898 
32 1 0.0138228 -0.00205531 0.000999998 324.785 
964 1 0.0158217 -0.00212183 0.000999998 319.206 
1180 1 0.0177825 -0.00251614 0.000999993 338.657 
885 1 0.0201852 -0.00247261 0.000999997 345.771 
264 1 0.0220832 -0.00158202 0.000999986 368.441 
258 1 0.0241116 -0.00228266 0.001 378.984 
291 1 0.0258098 -0.00110755 0.000999998 331.363 
1052 1 0.0282802 -0.00291658 0.000999992 365.956 
486 1 0.0304223 -0.00274938 0.000999993 350.126 
401 1 0.0328101 -0.00186878 0.000999996 326.36 
91 1 0.0348112 -0.00186302 0.00099999 340.968 
1248 1 0.0364864 -0.00291987 0.00127711 329.954 
1196 1 0.0384654 -0.00283657 0.000999995 326.843 
351 1 0.0409167 -0.00183629 0.000999995 336.09 
1003 1 0.0429073 -0.00158969 0.000999997 326.88 
545 1 0.0452833 -0.00262575 0.000999997 332.18 
31 1 0.0472197 -0.00212533 0.000999991 324.846 
1027 1 0.0491105 -0.00283465 0.000999996 309.492 
620 1 0.00150677 0.000624044 0.000999984 318.912 
817 1 0.00370969 0.000569636 0.000999998 300 
127 1 0.00591125 -0.000406584 0.00199601 373.299 
306 1 0.00756563 0.000823028 0.000999994 325.509 
167 1 0.00960301 -0.000600847 0.000999992 348.218 
721 1 0.0132144 -0.000384327 0.00191523 392.159 
33 1 0.015787 -0.000111352 0.000999998 300 
522 1 0.017804 -0.000350713 0.000999998 300 
1330 1 0.0201726 -0.00047205 0.000999998 300 
624 1 0.0239822 -0.000286865 0.000999988 363.457 
799 1 0.0222849 0.000162791 0.00195755 399.57 
644 1 0.0278053 -0.000973797 0.000999988 371.609 
181 1 0.0267602 0.000746138 0.000999994 364.58 
289 1 0.0300684 -0.000444246 0.000999989 352.669 
899 1 0.0320249 -2.93762e-05 0.000999997 323.087 
184 1 0.0341146 1.68805e-05 0.000999998 304.677 
1191 1 0.0369446 -0.000988246 0.000999998 311.307 
625 1 0.0395889 -0.000291061 0.000999998 318.805 
250 1 0.0417007 7.81934e-06 0.000999996 332.563 
1247 1 0.0440456 0.000574431 0.000999991 337.101 
518 1 0.045939 -0.000588995 0.000999992 340.502 
198 1 0.0476838 0.000898644 0.000999998 300 
527 1 0.0488465 -0.000852146 0.000999995 314.307 
904 1 0.0494914 0.00083641 0.00185608 339.332 
305 1 0.00264916 0.00226565 0.00100002 324.684 
408 1 0.00557638 0.00129512 0.000999993 343.327 
1037 1 0.00643218 0.00282586 0.00196146 364.042 
1054 1 0.00968458 0.00225442 0.000999996 324.215 
310 1 0.0118961 0.00105156 0.000999998 309.266 
364 1 0.0129022 0.00293552 0.000999998 315.856 
392 1 0.0139525 0.00123354 0.000999991 347.565 
430 1 0.0169059 0.00174167 0.000999993 349.773 
723 1 0.0189959 0.00172789 0.000999992 344.289 
279 1 0.0209923 0.00135248 0.000999998 300 
1099 1 0.0248586 0.00295496 0.000999993 358.099 
1044 1 0.0241312 0.00141222 0.00204443 412.325 
1226 1 0.0268526 0.0027672 0.000999989 377.25 
474 1 0.0285332 0.00167963 0.000999992 353.216 
1175 1 0.0304799 0.00146998 0.0014079 366.188 
280 1 0.033244 0.00181831 0.000999998 312.158 
476 1 0.0350733 0.0024588 0.0014934 346.511 
735 1 0.0363974 0.00104339 0.000999985 359.009 
311 1 0.0384834 0.00158561 0.000999987 356.993 
562 1 0.0405308 0.00178272 0.000999989 344.742 
197 1 0.0425283 0.0018813 0.000999995 327.017 
615 1 0.0443907 0.00261031 0.000999986 339.9 
568 1 0.0458138 0.00132471 0.00156747 365.877 
1197 1 0.0497082 0.00263088 0.000999994 336.067 
366 1 0.00100063 0.00383724 0.000999997 305.896 
920 1 0.0043839 0.00326097 0.00099999 326.182 
1036 1 0.00644525 0.00457953 0.000999989 326.66 
314 1 0.00844657 0.0042024 0.000999998 300 
1224 1 0.0104826 0.00408961 0.000999992 335.505 
1124 1 0.0123036 0.0049164 0.000999992 342.507 
1286 1 0.0152051 0.00422662 0.000999983 353.017 
972 1 0.0186014 0.00369399 0.000999996 327.019 
493 1 0.0202753 0.0030119 0.00185588 393.773 
939 1 0.02075 0.00475605 0.000999988 364.363 
923 1 0.0220823 0.00307749 0.000999993 354.11 
241 1 0.0235323 0.00445514 0.00099999 366.313 
322 1 0.0254857 0.00479463 0.00147149 373.379 
485 1 0.0274261 0.00468323 0.000999995 351.96 
814 1 0.0294225 0.00456453 0.000999989 358.567 
1229 1 0.031651 0.00303909 0.000999991 350.926 
879 1 0.0329328 0.00472665 0.000999998 300 
1019 1 0.0354244 0.00436559 0.000999992 343.427 
26 1 0.0374497 0.00408387 0.000999998 300 
946 1 0.0393305 0.00340354 0.000999998 313.618 
1314 1 0.041438 0.0035651 0.000999997 330.225 
300 1 0.0429164 0.00497018 0.000999991 336.412 
757 1 0.0450353 0.00455743 0.000999996 326.059 
121 1 0.0464429 0.00313648 0.000999998 300 
2899 1 0.0491937 0.0045982 0.000999981 343.538 
235 1 0.0481355 0.00327053 0.00205706 372.527 
852 1 0.00147344 0.00578054 0.000999994 304.029 
143 1 0.00359123 0.00509717 0.000999997 319.518 
712 1 0.00611097 0.00655139 0.000999995 317.998 
857 1 0.00765647 0.00583318 0.0020467 335.712 
156 1 0.0101027 0.00606714 0.000999991 332.267 
733 1 0.0125017 0.00690655 0.000999988 340.358 
761 1 0.0142906 0.00601072 0.000999998 300 
1306 1 0.0170989 0.00501409 0.000999991 337.3 
1285 1 0.0165013 0.00696633 0.000999998 308.344 
237 1 0.0189814 0.0056897 0.000999997 333.472 
621 1 0.0222928 0.00602882 0.00099999 349.875 
1134 1 0.0242725 0.00631312 0.000999989 354.478 
1154 1 0.028986 0.0067722 0.000999991 355.801 
332 1 0.0310772 0.00569306 0.000999998 300 
404 1 0.0326452 0.00696578 0.000999994 337.422 
1299 1 0.0344553 0.0061151 0.000999994 335.763 
1088 1 0.0366774 0.00592881 0.000999988 367.048 
54 1 0.0390828 0.00538836 0.000999994 333.482 
176 1 0.0410339 0.00582837 0.000999992 329.579 
544 1 0.0455158 0.00651409 0.000999998 300 
469 1 0.0472716 0.00515104 0.000999995 320.982 
14 1 0.0486979 0.00655309 0.000999996 326.056 
741 1 0.000999996 0.00772368 0.00100003 303.628 
187 1 0.00278473 0.00862649 0.000999991 307.182 
540 1 0.00401709 0.00705129 0.000999987 313.851 
193 1 0.00477701 0.00895808 0.000999998 300 
253 1 0.0068207 0.00842122 0.000999996 313.275 
959 1 0.00850773 0.00730957 0.000999992 321.255 
328 1 0.0114072 0.00885084 0.000999998 300 
718 1 0.0132987 0.00844915 0.0019926 342.124 
978 1 0.0151909 0.00848408 0.000999991 334.445 
488 1 0.0171399 0.00893312 0.000999991 330.035 
847 1 0.0186891 0.00766823 0.000999992 336.328 
473 1 0.0206946 0.00740128 0.000999998 300 
854 1 0.0226507 0.00799697 0.000999991 355.391 
207 1 0.026375 0.00739618 0.000999998 300.182 
513 1 0.0293352 0.00896057 0.00151575 331.909 
651 1 0.0307733 0.00766986 0.000999989 339.093 
1298 1 0.0326488 0.00875108 0.00190147 332.148 
1244 1 0.0353883 0.00770327 0.00177925 370.211 
611 1 0.0372176 0.00791835 0.000999986 341.048 
730 1 0.0393595 0.00754716 0.000999997 327.952 
835 1 0.0417267 0.00744182 0.00195747 373.594 
110 1 0.0436805 0.00766014 0.000999996 325.96 
428 1 0.0469194 0.00795518 0.000999997 304.762 
174 1 0.0497579 0.00825521 0.000999987 335.492 
205 1 0.00100021 0.00991911 0.000999985 302.423 
177 1 0.00272024 0.0104073 0.001908 304.695 
674 1 0.00638342 0.0103728 0.000999989 309.766 
79 1 0.00942032 0.00908922 0.000999998 317.16 
1320 1 0.0104938 0.0103921 0.00207241 326.528 
779 1 0.012119 0.0108494 0.00100017 319.012 
292 1 0.0139551 0.0100566 0.000999991 325.216 
11 1 0.015904 0.0105056 0.00099999 323.722 
50 1 0.0188973 0.00950435 0.00176508 322.758 
1042 1 0.0207436 0.00942881 0.000999998 306.297 
694 1 0.0226224 0.0101149 0.000999989 337.452 
147 1 0.0240051 0.00907428 0.00200252 372.837 
983 1 0.0256274 0.00967679 0.000999989 334.487 
798 1 0.0278229 0.0101635 0.000999996 313.624 
966 1 0.0311269 0.00968438 0.000999995 317.709 
1186 1 0.033815 0.0102344 0.000999995 323.417 
1091 1 0.035782 0.00950263 0.000999993 337.011 
93 1 0.0382867 0.00960858 0.000999998 329.172 
1160 1 0.0399631 0.0106994 0.000999988 313.867 
575 1 0.0411762 0.00910919 0.00099999 330.375 
985 1 0.04312 0.00957997 0.000999996 314.325 
359 1 0.0453271 0.00941899 0.000999995 320.046 
969 1 0.0472618 0.00992566 0.000999998 307.75 
78 1 0.0492059 0.0103951 0.000999992 307.744 
363 1 0.000999994 0.0125472 0.000999995 300.586 
811 1 0.00296408 0.0122886 0.00127469 302.121 
743 1 0.00449491 0.0110312 0.000999993 303.577 
1251 1 0.00600936 0.0123375 0.000999995 303.103 
72 1 0.009055 0.0112752 0.000999994 309.57 
1313 1 0.0110293 0.0125265 0.00099999 308.821 
654 1 0.0139151 0.0120596 0.000999989 317.309 
271 1 0.0178307 0.0110468 0.000999998 300 
15 1 0.0191506 0.0123316 0.00178965 316.653 
215 1 0.0208644 0.0116686 0.00099999 318.517 
420 1 0.0226323 0.0118976 0.00190669 324.841 
449 1 0.0244554 0.012149 0.000999998 308.296 
39 1 0.0263672 0.0115349 0.000999992 315.895 
188 1 0.0295985 0.0111181 0.000999991 323.325 
425 1 0.028129 0.0124814 0.000999992 307.419 
1095 1 0.0312193 0.01229 0.000999998 300.001 
1227 1 0.033219 0.0122468 0.000999995 311.818 
119 1 0.0353449 0.0122916 0.000999998 300 
650 1 0.0369685 0.0111127 0.000999989 323.104 
1138 1 0.0386186 0.0122428 0.000999992 314.981 
979 1 0.0405124 0.0124274 0.00184388 321.644 
316 1 0.0424181 0.0117033 0.000999998 303.985 
1297 1 0.0443447 0.0111611 0.00099999 316.805 
1206 1 0.046545 0.0118446 0.000999993 311.296 
380 1 0.0484365 0.0121497 0.00157368 304.538 
347 1 0.00209295 0.014 0.00183359 300.567 
309 1 0.00396196 0.014 0.000999998 300.834 
1130 1 0.00566062 0.014 0.00205571 302.36 
807 1 0.00735927 0.014 0.000999991 301.83 
114 1 0.00931258 0.0135525 0.000999993 303.42 
240 1 0.0123816 0.014 0.000999997 304.186 
672 1 0.0144052 0.014 0.000999998 303.03 
729 1 0.0161846 0.014 0.00191321 311.31 
758 1 0.0179409 0.0137147 0.000999996 307.335 
1038 1 0.0199206 0.014 0.000999993 306.513 
81 1 0.0217812 0.0139926 0.00173331 312.187 
676 1 0.0236419 0.0139761 0.000999994 306.348 
534 1 0.0264772 0.0137785 0.000999998 300 
526 1 0.0299137 0.014 0.000999997 302.172 
101 1 0.0322566 0.014 0.000999994 306.58 
1304 1 0.0342566 0.014 0.00099999 308.37 
1171 1 0.0370638 0.0139119 0.000999998 300 
442 1 0.0396097 0.014 0.000999989 310.589 
348 1 0.0423183 0.013713 0.000999998 300 
626 1 0.0443208 0.014 0.000999994 303.331 
935 1 0.0466494 0.0139491 0.000999998 300 
766 1 0.0489339 0.014 0.000999995 302.678 
728 1 0.00392052 -0.014 0.00238429 305.139 
1249 1 0.00256444 -0.0132265 0.00363435 312.402 
929 1 0.00450257 -0.0131416 0.00412055 321.6 
1137 1 0.00634469 -0.014 0.00274303 310.361 
1097 1 0.0078871 -0.0133954 0.0038635 329.721 
598 1 0.0095839 -0.014 0.0029944 319.061 
1056 1 0.0115791 -0.014 0.0031329 320.692 
747 1 0.0135702 -0.014 0.00294461 311.953 
1337 1 0.0162623 -0.0135725 0.00273454 307.03 
789 1 0.0184969 -0.014 0.00263796 321.831 
894 1 0.0203583 -0.014 0.00336963 322.989 
507 1 0.0220847 -0.0132262 0.00272104 320.783 
170 1 0.0250702 -0.014 0.00238244 313.915 
993 1 0.0240141 -0.0139722 0.00408059 337.537 
1048 1 0.0275175 -0.0134232 0.00263438 325.558 
1267 1 0.0262053 -0.014 0.00402915 310.588 
43 1 0.0295 -0.014 0.00274091 316.853 
1169 1 0.0312288 -0.014 0.00374657 335.039 
1008 1 0.0331407 -0.0134146 0.0037886 324.796 
1168 1 0.0342309 -0.014 0.00221734 314.378 
288 1 0.0350354 -0.014 0.00404837 324.418 
158 1 0.0375146 -0.014 0.00317125 306.505 
47 1 0.0406544 -0.0133617 0.00269294 330.304 
274 1 0.0425983 -0.014 0.00386091 324.936 
652 1 0.0441287 -0.014 0.00257328 314.213 
689 1 0.0463276 -0.014 0.00275222 309.447 
1184 1 0.0483371 -0.014 0.00274697 308.761 
1026 1 0.000999991 -0.0126891 0.00251021 305.336 
261 1 0.000999995 -0.011326 0.00397369 310.261 
1343 1 0.00301409 -0.0113076 0.00397475 325.298 
87 1 0.00423913 -0.0120312 0.0022356 306.107 
355 1 0.00504244 -0.0112267 0.00391614 336.039 
1208 1 0.00656471 -0.0120234 0.00253146 308.531 
22 1 0.00843274 -0.011079 0.00371936 347.891 
378 1 0.0101037 -0.0120919 0.00329275 330.127 
1220 1 0.0128444 -0.012285 0.00367402 325.883 
4 1 0.0145348 -0.0124065 0.00221646 314.533 
336 1 0.015519 -0.0118383 0.00386221 321.322 
622 1 0.0176585 -0.0122282 0.00224094 312.824 
1077 1 0.0174136 -0.0112732 0.00416425 348.24 
736 1 0.0189909 -0.012447 0.00379728 367.527 
681 1 0.0203697 -0.0122626 0.00236006 309.75 
859 1 0.022665 -0.0115618 0.00410205 360.574 
806 1 0.0239103 -0.0124121 0.00278814 339.067 
1152 1 0.0260548 -0.0120702 0.00246214 337.343 
999 1 0.0279366 -0.0119296 0.00389669 343.215 
1316 1 0.0289735 -0.011821 0.0021899 334.348 
797 1 0.029953 -0.0124734 0.00395094 339.951 
1264 1 0.0315301 -0.0122716 0.00273395 312.155 
20 1 0.0336445 -0.0118753 0.00261523 349.56 
1336 1 0.0350723 -0.0118548 0.00401562 340.052 
1126 1 0.0354465 -0.0110244 0.00213404 337.861 
233 1 0.0359508 -0.0129117 0.00256269 313.596 
450 1 0.0369507 -0.0113847 0.00340195 348.018 
160 1 0.0392319 -0.0123737 0.00369314 363.385 
724 1 0.0409925 -0.0114286 0.00230715 345.453 
876 1 0.0419024 -0.0120667 0.00396995 360.59 
872 1 0.0425493 -0.0128203 0.00223337 311.241 
704 1 0.0449215 -0.0120423 0.00276611 319.669 
945 1 0.0469145 -0.0120959 0.00292509 328.828 
221 1 0.0489219 -0.0120878 0.00278378 330.587 
1245 1 0.000999993 -0.00928449 0.00395345 316.146 
744 1 0.00199872 -0.0103191 0.00256345 314.948 
635 1 0.00390569 -0.00984746 0.00293895 329.361 
136 1 0.00590224 -0.00974057 0.00289044 337.578 
418 1 0.00782929 -0.00974667 0.00235529 339.188 
1057 1 0.0112144 -0.00913699 0.00230648 339.142 
259 1 0.0102857 -0.010154 0.00396539 380.562 
1318 1 0.0125372 -0.0106075 0.00262928 355.012 
725 1 0.0121185 -0.00937428 0.00414712 412.592 
1205 1 0.0144017 -0.00990101 0.00247217 365.481 
422 1 0.0163222 -0.0103914 0.00273907 340.045 
924 1 0.0183927 -0.0103733 0.00267041 354.214 
395 1 0.0200087 -0.0107212 0.00379621 359.515 
1195 1 0.0205045 -0.00947314 0.00231414 337.658 
500 1 0.0225748 -0.0102262 0.0026161 349.289 
213 1 0.0246572 -0.0105577 0.00272838 340.274 
909 1 0.0263344 -0.0095128 0.00242 367.978 
740 1 0.0265318 -0.0105259 0.00413308 386.163 
521 1 0.0284821 -0.00929895 0.00254496 384.892 
997 1 0.0297075 -0.0105331 0.00353251 375.461 
445 1 0.0304806 -0.00911342 0.00235493 369.173 
1261 1 0.0322714 -0.0104207 0.00289093 320.697 
529 1 0.0340991 -0.00964259 0.00265859 361.308 
277 1 0.0355513 -0.00991304 0.00402491 389.671 
124 1 0.0367214 -0.00947922 0.002462 379.892 
960 1 0.0385169 -0.0102744 0.00284128 367.209 
510 1 0.0401572 -0.0106169 0.00393302 409.067 
533 1 0.0434256 -0.0107171 0.00268929 352.109 
552 1 0.044975 -0.00945352 0.0026339 389.686 
697 1 0.0458235 -0.0106606 0.00398403 401.973 
440 1 0.0475928 -0.00981798 0.00358448 373.851 
1021 1 0.0490805 -0.0100354 0.00226562 352.462 
95 1 0.0495155 -0.0105984 0.00413479 383.192 
564 1 0.00099999 -0.00828587 0.00219099 313.566 
1178 1 0.00294431 -0.00812116 0.0026297 319.753 
1005 1 0.00493772 -0.00799531 0.00273643 352.626 
284 1 0.00642498 -0.00807971 0.00407095 376.09 
27 1 0.00807073 -0.00718883 0.00266529 378.031 
344 1 0.00938651 -0.00866083 0.00298457 369.033 
455 1 0.0105623 -0.00708018 0.00263943 384.58 
636 1 0.0124312 -0.00770239 0.00298568 380.14 
1006 1 0.0139625 -0.00858986 0.00391714 414.833 
457 1 0.0154895 -0.00790228 0.00238508 320.041 
719 1 0.0174886 -0.00898444 0.00379015 400.176 
970 1 0.0173748 -0.00710733 0.00303941 377.74 
179 1 0.019032 -0.00819104 0.00275844 386.108 
138 1 0.0218439 -0.00861733 0.00355266 401.305 
818 1 0.0203462 -0.00738063 0.00402971 445.188 
246 1 0.0236322 -0.00852863 0.00260825 350.989 
52 1 0.0251761 -0.00874884 0.00386041 400.167 
788 1 0.0270982 -0.00816529 0.00368523 405.471 
988 1 0.028116 -0.00722336 0.00224411 391.067 
490 1 0.0294674 -0.00792801 0.00361716 423.924 
84 1 0.031579 -0.00882185 0.0040007 445.52 
574 1 0.0326897 -0.00787248 0.00263506 374.557 
1270 1 0.0346324 -0.00763772 0.00222151 367.236 
890 1 0.0361877 -0.00783246 0.00346367 433.157 
51 1 0.0380266 -0.00798128 0.00269142 415.544 
631 1 0.0399048 -0.00892272 0.00234495 340.783 
96 1 0.0393912 -0.00787195 0.00414942 491.416 
511 1 0.0410111 -0.00732224 0.00280826 363.1 
466 1 0.041122 -0.00887299 0.00410041 490.559 
1303 1 0.0421003 -0.00893786 0.00235721 388.856 
958 1 0.0436162 -0.00824038 0.00345969 435.272 
801 1 0.0466159 -0.00823817 0.00279014 395.208 
12 1 0.0485517 -0.00783185 0.00249456 366.376 
1322 1 0.00166231 -0.00652449 0.00286836 332.957 
1341 1 0.00396419 -0.00627271 0.00244508 343.999 
558 1 0.00510905 -0.00651309 0.00406821 394.876 
1255 1 0.00617585 -0.0056989 0.0025853 361.775 
56 1 0.00920399 -0.00554256 0.00273928 399.992 
1328 1 0.0124008 -0.00589791 0.00386145 464.311 
981 1 0.0141383 -0.00669754 0.00326137 391.65 
63 1 0.016488 -0.00538171 0.00255375 398.963 
942 1 0.0197866 -0.00626282 0.00246853 414.739 
1115 1 0.0187325 -0.00616465 0.0041654 480.032 
394 1 0.0204476 -0.00512481 0.00397452 419.45 
433 1 0.0221624 -0.00664013 0.00363846 460.345 
1004 1 0.0238057 -0.00623755 0.0025719 399.751 
957 1 0.0256907 -0.00562412 0.0028533 366.806 
436 1 0.0276169 -0.00518118 0.0025475 411.512 
769 1 0.0283152 -0.00634638 0.0040305 474.986 
141 1 0.0300155 -0.00540323 0.00326521 434.376 
59 1 0.0319484 -0.00601689 0.00271977 390.345 
104 1 0.0339034 -0.00541545 0.00219479 362.358 
489 1 0.0353605 -0.00612222 0.00408883 448.866 
1166 1 0.0366481 -0.00613693 0.00250276 330.413 
58 1 0.0378524 -0.00653306 0.00405974 462.567 
593 1 0.0392466 -0.00639765 0.00263055 388.705 
897 1 0.041185 -0.00533196 0.00253628 401.613 
1 1 0.0428685 -0.00661072 0.0025736 383.231 
759 1 0.0446992 -0.00576291 0.00298167 396.506 
396 1 0.0462771 -0.0066257 0.00392378 443.534 
1234 1 0.0482705 -0.00512445 0.00266 368.573 
3839 1 0.0498275 -0.00635211 0.00292208 398.589 
539 1 0.000999991 -0.00463755 0.00284091 322.069 
502 1 0.0028692 -0.00496099 0.00348449 341.94 
1090 1 0.00241806 -0.00326162 0.00253127 332.977 
666 1 0.00465322 -0.00440221 0.00271947 350.642 
102 1 0.00755571 -0.00396157 0.00273142 393.508 
263 1 0.00952789 -0.00357948 0.00294262 428.815 
659 1 0.0111076 -0.00492458 0.00267413 369.331 
61 1 0.0132155 -0.00474062 0.00244835 395.284 
701 1 0.014857 -0.00485586 0.003585 443.509 
968 1 0.0144952 -0.00320426 0.00249262 396.236 
949 1 0.0164875 -0.00336364 0.00242094 383.412 
815 1 0.0184075 -0.00482756 0.00266398 405.297 
941 1 0.0219151 -0.00493099 0.00262965 397.371 
793 1 0.0203805 -0.00364863 0.00260586 405.588 
371 1 0.0217992 -0.00348212 0.00400576 508.614 
437 1 0.0237219 -0.00436751 0.00327611 393.898 
232 1 0.0256883 -0.00374046 0.00360621 429.698 
1053 1 0.0274331 -0.0032043 0.00278871 387.185 
1113 1 0.0294168 -0.00367225 0.0024619 422.825 
239 1 0.0285386 -0.00436099 0.00412155 507.214 
125 1 0.0313661 -0.00411936 0.00247416 386.887 
503 1 0.0305202 -0.00320882 0.00406428 490.686 
685 1 0.0338027 -0.00315327 0.00216831 354.553 
1183 1 0.0329001 -0.00455259 0.00369441 384.592 
607 1 0.0355435 -0.00451931 0.00290681 409.868 
670 1 0.0344352 -0.0033252 0.00406679 491.967 
337 1 0.0372277 -0.00348272 0.00320522 418.501 
1129 1 0.0385362 -0.00458563 0.00217014 373.769 
731 1 0.0397943 -0.0039422 0.00358553 469.726 
571 1 0.0429846 -0.00447594 0.00270542 363.607 
971 1 0.0428698 -0.00304037 0.00409671 473.895 
708 1 0.0447234 -0.00389631 0.00371446 397.802 
886 1 0.0466457 -0.00466918 0.00373368 368.637 
1181 1 0.0478672 -0.0031672 0.00257964 366.158 
7 1 0.000999995 -0.00224926 0.00351349 335.478 
194 1 0.00444504 -0.00241389 0.00266259 373.976 
824 1 0.00663811 -0.002199 0.00250483 382.264 
850 1 0.00789364 -0.0024833 0.00403545 401.881 
520 1 0.00878403 -0.00181657 0.00236061 391.459 
1122 1 0.011365 -0.00295271 0.00246086 403.744 
1071 1 0.0110248 -0.00157098 0.0038662 459.208 
1326 1 0.0128951 -0.00189142 0.00319063 418.92 
592 1 0.0149515 -0.00128289 0.00280888 411.614 
251 1 0.0169801 -0.001426 0.00247444 377.228 
702 1 0.0161354 -0.00228746 0.00406953 374.692 
1149 1 0.0180125 -0.00280077 0.00358607 450.557 
379 1 0.0189674 -0.00158635 0.00231587 381.636 
1284 1 0.0210353 -0.00176092 0.00269408 430.061 
794 1 0.0227832 -0.00284188 0.00238658 416.764 
448 1 0.0225297 -0.0013417 0.0039554 484.939 
1114 1 0.0242126 -0.00239472 0.00371208 489.107 
1335 1 0.0270199 -0.00120829 0.00282432 468.069 
687 1 0.0291767 -0.00168212 0.00229324 416.681 
753 1 0.0287052 -0.00236798 0.00411184 514.201 
628 1 0.0312942 -0.00143576 0.00223057 354.234 
937 1 0.0323336 -0.00265285 0.00342984 430.389 
637 1 0.0355118 -0.00215918 0.00284971 408.841 
998 1 0.0373732 -0.001489 0.00314284 394.639 
128 1 0.0393168 -0.00208354 0.00264561 367.902 
871 1 0.0411969 -0.00260098 0.00308983 345.668 
992 1 0.0426257 -0.00120919 0.00294356 364.375 
587 1 0.0438385 -0.00269671 0.00238109 385.103 
710 1 0.0445866 -0.00189194 0.0040522 464.384 
512 1 0.0461727 -0.00207084 0.00270327 326.889 
21 1 0.0478069 -0.00170423 0.00394202 440.331 
1170 1 0.0495766 -0.00258666 0.00344025 396.935 
822 1 0.000999987 -0.000473589 0.00259319 325.389 
109 1 0.0024542 -0.000832872 0.00391839 370.858 
528 1 0.00578114 -0.000842966 0.00394346 442.406 
242 1 0.00411277 -0.000225061 0.00285187 352.09 
144 1 0.00763281 -0.000245222 0.00300108 389.698 
1192 1 0.00914761 -0.000927255 0.00411472 442.306 
419 1 0.00945075 0.000512878 0.0026542 391.576 
412 1 0.0112445 -0.000305026 0.0023172 335.994 
1076 1 0.0126516 8.4254e-06 0.00379379 450.179 
62 1 0.0149188 0.000712616 0.0026792 416.014 
296 1 0.0169126 0.000567618 0.00261911 411.563 
1125 1 0.0179476 -0.000535511 0.00398153 439.754 
229 1 0.0189022 0.000404401 0.0024965 408.123 
1121 1 0.0207436 0.000143193 0.00323189 433.627 
1269 1 0.0233602 0.000450973 0.00361969 488.659 
182 1 0.0248598 -0.000777839 0.00272881 373.34 
438 1 0.0259157 0.000919027 0.00280466 456.244 
1194 1 0.0286065 0.000232978 0.00237905 413.897 
896 1 0.0318096 -0.000830484 0.00406577 477.165 
1030 1 0.0305119 0.000242498 0.00298658 418.285 
334 1 0.033172 -0.000725086 0.00260031 321.95 
19 1 0.0356439 -0.00022773 0.00234772 408.221 
65 1 0.0377027 0.000305464 0.00232351 384.156 
1120 1 0.0390534 -0.000489579 0.00382456 446.644 
1079 1 0.0395763 0.00096548 0.00255594 381.594 
1268 1 0.0407291 -0.00066785 0.0026123 376.307 
267 1 0.0425149 0.000767667 0.00266122 365.675 
307 1 0.0436758 2.84904e-05 0.00411238 469.91 
640 1 0.0445885 -0.000664407 0.00247324 394.98 
1235 1 0.0459945 0.00043435 0.00337651 373.938 
559 1 0.0474154 -0.000541394 0.0023621 326.809 
70 1 0.0493083 -0.000516063 0.00336394 387.829 
777 1 0.000999995 0.00110825 0.00381703 323.99 
471 1 0.000999996 0.00219067 0.00213525 317.217 
1043 1 0.00259936 0.0010612 0.00261711 343.232 
1165 1 0.0043985 0.00192522 0.00248846 363.523 
1342 1 0.00615918 0.00122393 0.00312734 382.865 
948 1 0.00824989 0.00209418 0.00238418 352.919 
73 1 0.00954494 0.00198347 0.0040064 422.802 
505 1 0.0109079 0.00187772 0.00253671 345.144 
921 1 0.0128894 0.00162969 0.00264707 349.309 
698 1 0.0148031 0.00263621 0.00214408 388.984 
542 1 0.0161275 0.00214771 0.00356089 395.885 
202 1 0.0179548 0.00149021 0.00405531 473.083 
1312 1 0.0198177 0.00190183 0.00345535 456.861 
1100 1 0.0218928 0.00199069 0.0026682 430.463 
902 1 0.024654 0.0020511 0.00386609 475.378 
715 1 0.0275718 0.00203697 0.00271739 448.392 
209 1 0.0292263 0.00157551 0.00374179 474.584 
68 1 0.030945 0.00242399 0.00317064 411.766 
189 1 0.0323332 0.0010903 0.00262827 363.42 
122 1 0.0331342 0.00221269 0.00408336 414.448 
1112 1 0.0343195 0.0011875 0.00284081 377.236 
1259 1 0.0371473 0.00244187 0.00221728 404.322 
570 1 0.0366618 0.0011466 0.00380976 461.369 
1070 1 0.0392343 0.0028996 0.00293307 354.293 