ITEM: TIMESTEP
12800000
ITEM: NUMBER OF ATOMS
5000
ITEM: BOX BOUNDS mm mm mm
0 0.1
-0.015 0.015
0 0.3
ITEM: ATOMS id type x y z f_Temp[0] 
977 1 0.00102825 -0.014 0.000999993 300.887 
581 1 0.00280534 -0.013082 0.000999998 300 
980 1 0.00536401 -0.0139934 0.000999992 302.206 
1252 1 0.00736679 -0.0139976 0.000999998 300 
648 1 0.00943464 -0.014 0.000999991 304.268 
1049 1 0.0114352 -0.0139952 0.000999998 300 
585 1 0.0133901 -0.0135651 0.000999998 300 
453 1 0.0153494 -0.0139699 0.000999997 300.834 
812 1 0.0173493 -0.0139998 0.000999993 306.311 
1111 1 0.0195007 -0.0134438 0.000999984 306.463 
713 1 0.021422 -0.014 0.000999994 303.112 
1065 1 0.0234048 -0.014 0.00126756 301.476 
82 1 0.0265155 -0.0139931 0.000999994 305.087 
383 1 0.0285156 -0.014 0.000999992 304.046 
930 1 0.030521 -0.014 0.000999997 302.438 
936 1 0.0322405 -0.014 0.00202133 304.728 
1185 1 0.0365621 -0.014 0.000999997 300.577 
961 1 0.0387276 -0.014 0.00158109 303.221 
397 1 0.0415067 -0.014 0.000999998 301.523 
434 1 0.0453634 -0.0139995 0.000999989 300.621 
845 1 0.0473634 -0.013996 0.000999993 300.142 
69 1 0.0493634 -0.014 0.000999998 300 
775 1 0.00100002 -0.0113754 0.000999998 300 
100 1 0.0029795 -0.0110896 0.000999992 303.382 
914 1 0.00557519 -0.0112015 0.00100005 305.116 
80 1 0.00757517 -0.0111953 0.000999991 308.09 
451 1 0.00998402 -0.0120769 0.000999996 308.811 
796 1 0.00840292 -0.0126653 0.00207425 303.653 
693 1 0.0116631 -0.012314 0.00206038 317.412 
1317 1 0.0131863 -0.0115688 0.000999987 315.156 
915 1 0.0160944 -0.0121103 0.000999994 306.823 
410 1 0.0190455 -0.011496 0.000999996 306.349 
830 1 0.0224371 -0.0122702 0.000999998 300.225 
320 1 0.0247898 -0.0125822 0.000999992 307.054 
112 1 0.0274126 -0.0122056 0.000999996 307.804 
75 1 0.0305709 -0.0120006 0.000999993 307.346 
44 1 0.0325472 -0.012308 0.000999993 304.234 
903 1 0.0346614 -0.0124727 0.000999987 308.997 
501 1 0.0399655 -0.0125406 0.000999994 305.849 
606 1 0.0381813 -0.0121244 0.00200969 311.86 
895 1 0.0424953 -0.0112468 0.000999991 306.263 
98 1 0.0440827 -0.0124633 0.000999998 301.338 
591 1 0.0463588 -0.0121918 0.000999998 300 
260 1 0.0483399 -0.0113954 0.000999988 301.819 
341 1 0.00236835 -0.00912792 0.000999989 305 
781 1 0.00434315 -0.00962605 0.00099999 308.443 
163 1 0.00630249 -0.00922482 0.000999992 311.518 
180 1 0.00969329 -0.0104144 0.00207298 329.82 
657 1 0.0113778 -0.0106424 0.000999994 309.307 
479 1 0.0130888 -0.00957115 0.00099999 319.98 
1334 1 0.0156328 -0.00933789 0.000999989 325.341 
236 1 0.0173021 -0.0105161 0.00100003 317.678 
463 1 0.0189969 -0.0094543 0.000999987 321.637 
1058 1 0.020961 -0.0109208 0.000999997 305.037 
214 1 0.021988 -0.00920459 0.000999991 321.511 
48 1 0.0236592 -0.010687 0.000999996 311.296 
1001 1 0.0256579 -0.0107646 0.000999989 310.768 
157 1 0.0275721 -0.0101849 0.00099999 322.362 
154 1 0.0295703 -0.010269 0.000999998 320.303 
849 1 0.0316902 -0.0101265 0.000999998 301.453 
986 1 0.0337356 -0.0106994 0.000999992 313.506 
352 1 0.0353603 -0.00937906 0.000999998 314.093 
391 1 0.037078 -0.0107965 0.00099999 312.918 
828 1 0.0380495 -0.00904828 0.000999991 320.835 
1302 1 0.0391669 -0.010707 0.000999989 312.072 
1153 1 0.0410033 -0.00991491 0.000999992 313.295 
1029 1 0.0435086 -0.00935559 0.000999995 308.974 
734 1 0.0450013 -0.0106867 0.000999997 301.947 
168 1 0.0467898 -0.0104128 0.001852 303.939 
673 1 0.0479253 -0.00900397 0.000999991 303.958 
230 1 0.00208414 -0.00710001 0.000999993 312.172 
962 1 0.00400567 -0.00765473 0.000999989 317.31 
829 1 0.00807393 -0.0082964 0.000999989 322.742 
409 1 0.0100683 -0.00814704 0.00100015 317.362 
524 1 0.0120481 -0.00786324 0.000999994 315.796 
1221 1 0.0140493 -0.00781588 0.000999998 302.172 
1092 1 0.0173393 -0.0086903 0.00181755 342.648 
461 1 0.016624 -0.00701102 0.000999992 320.82 
1062 1 0.0197951 -0.00762048 0.000999986 339.107 
790 1 0.0215614 -0.00748521 0.00192831 364.952 
200 1 0.0233297 -0.00737885 0.000999993 339.531 
602 1 0.0247258 -0.00899514 0.000999997 309.704 
546 1 0.0254076 -0.0074302 0.00204216 313.942 
1240 1 0.0269157 -0.00822994 0.000999998 304.398 
247 1 0.0292594 -0.00829331 0.00099999 331.501 
973 1 0.0315646 -0.00811889 0.00099999 319.221 
1319 1 0.0334732 -0.00871669 0.000999992 318.093 
947 1 0.0365133 -0.00779137 0.00138712 304.517 
238 1 0.0398083 -0.00744564 0.000999998 307.661 
162 1 0.0418494 -0.00748761 0.000999997 302.938 
367 1 0.0444121 -0.00769988 0.0016651 305.183 
1274 1 0.0459344 -0.00881346 0.000999986 311.333 
1074 1 0.0498501 -0.00837655 0.000999998 300 
28 1 0.0010002 -0.00541922 0.000999994 306.671 
956 1 0.00299467 -0.00525793 0.000999998 300 
134 1 0.00500411 -0.00536152 0.000999994 322.122 
825 1 0.00684751 -0.00671657 0.000999995 322.006 
976 1 0.00894151 -0.00649438 0.000999994 333.685 
169 1 0.0109715 -0.00601028 0.000999993 328.506 
556 1 0.0129962 -0.00610228 0.000999995 330.834 
421 1 0.0149261 -0.00609382 0.001525 332.726 
1217 1 0.0184323 -0.00615665 0.000999998 323.557 
1325 1 0.0210592 -0.00573473 0.000999998 300 
496 1 0.0230199 -0.00528279 0.000999996 340.503 
639 1 0.024956 -0.005784 0.00099999 336.93 
1151 1 0.0269057 -0.0062297 0.000999984 337.476 
443 1 0.0289856 -0.0054725 0.000999998 300 
1231 1 0.0310308 -0.00545229 0.000999998 300 
146 1 0.0303193 -0.00698151 0.00207498 344.352 
1290 1 0.0330366 -0.00676492 0.000999997 309.766 
1075 1 0.0353259 -0.00621403 0.000999995 310.581 
618 1 0.038025 -0.00654034 0.000999998 301.354 
83 1 0.0399098 -0.00544822 0.000999985 321.542 
974 1 0.0424605 -0.00544572 0.000999991 317.541 
1289 1 0.0449382 -0.00588859 0.000999992 310.315 
772 1 0.0466402 -0.00609637 0.0020296 319.927 
530 1 0.0482999 -0.00652692 0.000999994 305.01 
283 1 0.00371094 -0.00338752 0.000999998 300 
750 1 0.00569478 -0.00311867 0.000999998 300.011 
234 1 0.00689912 -0.00471724 0.000999994 332.217 
1025 1 0.00808629 -0.00310753 0.000999998 300 
139 1 0.00957838 -0.00451696 0.000999998 300 
791 1 0.0119528 -0.0041857 0.000999985 343.501 
402 1 0.0153626 -0.004214 0.000999994 328.625 
1087 1 0.017357 -0.00447035 0.000999991 334.96 
519 1 0.0193899 -0.00431182 0.000999993 338.541 
275 1 0.0216938 -0.00378558 0.000999994 328.372 
142 1 0.0249492 -0.00393316 0.00175782 346.365 
90 1 0.0267754 -0.00423396 0.000999996 327.515 
492 1 0.032699 -0.00434362 0.000999993 315.849 
749 1 0.0350091 -0.00423928 0.000999994 318.378 
1187 1 0.0369358 -0.00484893 0.000999997 305.628 
175 1 0.0402006 -0.00358298 0.00166048 331.137 
1050 1 0.0420853 -0.00347573 0.000999995 308.919 
846 1 0.0439728 -0.00413701 0.000999988 311.511 
424 1 0.0456873 -0.00431841 0.00201368 310.361 
1243 1 0.0474114 -0.00430605 0.000999998 304.092 
3721 1 0.0493439 -0.00482097 0.000999988 303.216 
77 1 0.0010627 -0.00206578 0.000999998 300 
37 1 0.00269634 -0.00135299 0.00200246 332.066 
1108 1 0.00442621 -0.00130241 0.000999983 331.064 
385 1 0.0074663 -0.0011745 0.000999988 336.099 
89 1 0.0100509 -0.00255521 0.000999998 300 
318 1 0.0118586 -0.00167902 0.000999998 316.975 
32 1 0.0138228 -0.00205531 0.000999998 314.405 
964 1 0.0158217 -0.00212183 0.000999998 308.321 
1180 1 0.0177825 -0.00251614 0.000999993 324.2 
885 1 0.0201852 -0.00247261 0.000999997 328.72 
264 1 0.0220832 -0.00158202 0.000999986 349.494 
258 1 0.0241116 -0.00228266 0.001 350.446 
291 1 0.0258098 -0.00110755 0.000999998 316.486 
1052 1 0.0282802 -0.00291658 0.000999992 343.727 
486 1 0.0304223 -0.00274938 0.000999993 330.296 
401 1 0.0328101 -0.00186878 0.000999996 310.146 
91 1 0.0348112 -0.00186302 0.00099999 321.193 
1248 1 0.0364864 -0.00291987 0.00127711 310.188 
1196 1 0.0384654 -0.00283657 0.000999995 307.974 
351 1 0.0409167 -0.00183629 0.000999995 311.937 
1003 1 0.0429072 -0.00158984 0.000999997 306.356 
545 1 0.0452833 -0.00262575 0.000999997 307.634 
31 1 0.0472197 -0.00212533 0.000999991 304.14 
1027 1 0.0491105 -0.00283465 0.000999996 300.617 
620 1 0.00150677 0.000624044 0.000999984 314.232 
817 1 0.00371033 0.0005695 0.000999998 300 
127 1 0.00591125 -0.000406584 0.00199601 362.141 
306 1 0.00756563 0.000823028 0.000999994 316.864 
167 1 0.00960301 -0.000600847 0.000999992 335.51 
721 1 0.0132144 -0.000384327 0.00191523 361.255 
33 1 0.0157851 -0.00011193 0.000999998 300 
522 1 0.0178018 -0.00034619 0.000999998 300 
1330 1 0.0201727 -0.000472099 0.000999998 300 
624 1 0.0239822 -0.000286865 0.000999988 341.019 
799 1 0.0222849 0.000162791 0.00195755 363.467 
644 1 0.0278053 -0.000973797 0.000999988 352.97 
181 1 0.0267603 0.000746452 0.000999994 345.237 
289 1 0.0300684 -0.000444246 0.000999989 332.669 
899 1 0.0320249 -2.93762e-05 0.000999997 307.562 
184 1 0.0341146 1.69241e-05 0.000999998 300.859 
1191 1 0.0369445 -0.000988159 0.000999998 302.886 
625 1 0.0395764 -0.000291125 0.000999998 304.809 
250 1 0.0417007 7.81939e-06 0.000999996 308.724 
1247 1 0.0440453 0.000574294 0.000999991 310.668 
518 1 0.045939 -0.000588995 0.000999992 310.821 
198 1 0.0476838 0.000898582 0.000999998 300 
527 1 0.0488465 -0.000852146 0.000999995 301.381 
904 1 0.0494914 0.00083641 0.00185608 306.316 
305 1 0.00264916 0.00226565 0.00100002 317.581 
408 1 0.00557638 0.00129512 0.000999993 334.383 
1037 1 0.00643218 0.00282586 0.00196146 349.419 
1054 1 0.00968458 0.00225442 0.000999996 312.343 
310 1 0.0118958 0.00105173 0.000999998 303.947 
364 1 0.0129022 0.00293552 0.000999998 307.095 
392 1 0.0139525 0.00123354 0.000999991 329.186 
430 1 0.0169059 0.00174167 0.000999993 330.536 
723 1 0.0189963 0.00172787 0.000999992 327.545 
279 1 0.0209922 0.00135249 0.000999998 300 
1099 1 0.0248586 0.00295496 0.000999993 339.137 
1044 1 0.0241312 0.00141222 0.00204443 384.543 
1226 1 0.0268526 0.0027672 0.000999989 353.907 
474 1 0.0285332 0.00167963 0.000999992 329.755 
1175 1 0.0304799 0.00146998 0.0014079 335.617 
280 1 0.033244 0.00181831 0.000999998 302.793 
476 1 0.0350733 0.0024588 0.0014934 316.257 
735 1 0.0363974 0.00104339 0.000999985 329.63 
311 1 0.0384834 0.00158561 0.000999987 325.091 
562 1 0.0405308 0.00178272 0.000999989 317.532 
197 1 0.0425283 0.0018813 0.000999995 307.453 
615 1 0.0443907 0.00261031 0.000999986 311.691 
568 1 0.0458138 0.00132471 0.00156747 320.012 
1197 1 0.0497082 0.00263088 0.000999994 305.99 
366 1 0.00100063 0.00383724 0.000999997 303.809 
920 1 0.0043839 0.00326097 0.00099999 319.497 
1036 1 0.00644525 0.00457953 0.000999989 318.443 
314 1 0.0084483 0.00420725 0.000999998 300 
1224 1 0.0104826 0.00408961 0.000999992 323.429 
1124 1 0.0123036 0.0049164 0.000999992 328.648 
1286 1 0.0152051 0.00422662 0.000999983 337.549 
972 1 0.0186014 0.00369399 0.000999996 316.509 
493 1 0.0202753 0.0030119 0.00185588 365.828 
939 1 0.02075 0.00475605 0.000999988 346.537 
923 1 0.0220823 0.00307749 0.000999993 338.293 
241 1 0.0235323 0.00445514 0.00099999 345.667 
322 1 0.0254857 0.00479463 0.00147149 350.607 
485 1 0.0274261 0.00468323 0.000999995 332.539 
814 1 0.0294225 0.00456453 0.000999989 335.522 
1229 1 0.031651 0.00303909 0.000999991 325.29 
879 1 0.0329292 0.00472518 0.000999998 300 
1019 1 0.0354244 0.00436559 0.000999992 322.732 
26 1 0.0374496 0.00408383 0.000999998 300 
946 1 0.0393304 0.00340355 0.000999998 302.548 
1314 1 0.041438 0.0035651 0.000999997 308.116 
300 1 0.0429164 0.00497018 0.000999991 310.55 
757 1 0.0450352 0.00455739 0.000999996 306.179 
121 1 0.0464429 0.00313647 0.000999998 300 
2899 1 0.0491937 0.0045982 0.000999981 309.814 
235 1 0.0481355 0.00327053 0.00205706 321.614 
852 1 0.00147344 0.00578054 0.000999994 302.319 
143 1 0.00359123 0.00509717 0.000999997 313.642 
712 1 0.00611097 0.00655139 0.000999995 310.279 
857 1 0.00765647 0.00583318 0.0020467 320.944 
156 1 0.010103 0.00606736 0.000999991 321.825 
733 1 0.0125017 0.00690655 0.000999988 327.332 
761 1 0.0142904 0.00601053 0.000999998 300 
1306 1 0.0170989 0.00501409 0.000999991 326.913 
1285 1 0.0165015 0.00696708 0.000999998 302.847 
237 1 0.0189814 0.0056897 0.000999997 321.886 
621 1 0.0222928 0.00602882 0.00099999 336.16 
1134 1 0.0242725 0.00631312 0.000999989 337.784 
1154 1 0.028986 0.0067722 0.000999991 337.336 
332 1 0.0310772 0.00569307 0.000999998 300 
404 1 0.0326452 0.00696578 0.000999994 318.837 
1299 1 0.0344553 0.0061151 0.000999994 316.271 
1088 1 0.0366774 0.00592881 0.000999988 340.136 
54 1 0.0390828 0.00538835 0.000999994 313.613 
176 1 0.0410339 0.00582837 0.000999992 309.107 
544 1 0.0455202 0.00651148 0.000999998 300 
469 1 0.0472716 0.00515104 0.000999995 302.879 
14 1 0.048698 0.00655307 0.000999996 303.074 
741 1 0.000999996 0.00772368 0.00100003 301.742 
187 1 0.00278473 0.00862649 0.000999991 303.684 
540 1 0.00401709 0.00705129 0.000999987 308.867 
193 1 0.00477462 0.00896144 0.000999998 300 
253 1 0.0068207 0.00842122 0.000999996 306.565 
959 1 0.00850773 0.00730957 0.000999992 311.513 
328 1 0.0114072 0.00885405 0.000999998 300 
718 1 0.0132987 0.00844915 0.0019926 325.801 
978 1 0.0151909 0.00848408 0.000999991 323.84 
488 1 0.0171399 0.00893312 0.000999991 319.422 
847 1 0.0186891 0.00766823 0.000999992 323.916 
473 1 0.020694 0.00740152 0.000999998 300 
854 1 0.0226507 0.00799697 0.000999991 338.555 
207 1 0.026375 0.0073963 0.000999998 300 
513 1 0.0293352 0.00896057 0.00151575 316.141 
651 1 0.0307733 0.00766986 0.000999989 323.487 
1298 1 0.0326488 0.00875108 0.00190147 311.174 
1244 1 0.0353883 0.00770327 0.00177925 336.005 
611 1 0.0372176 0.00791835 0.000999986 318.57 
730 1 0.0393571 0.0075503 0.000999997 310.036 
835 1 0.0417267 0.00744182 0.00195747 333.539 
110 1 0.0436805 0.00766014 0.000999996 307.839 
428 1 0.0469194 0.00795518 0.000999997 300.248 
174 1 0.0497579 0.00825521 0.000999987 305.316 
205 1 0.00100021 0.00991911 0.000999985 301.041 
177 1 0.00272024 0.0104073 0.001908 301.833 
674 1 0.00638342 0.0103728 0.000999989 304.904 
79 1 0.00942032 0.00908922 0.000999998 308.184 
1320 1 0.0104938 0.0103921 0.00207241 314.468 
779 1 0.012119 0.0108494 0.00100017 309.603 
292 1 0.0139551 0.0100566 0.000999991 315.138 
11 1 0.015904 0.0105056 0.00099999 315.1 
50 1 0.0188973 0.00950435 0.00176508 311.027 
1042 1 0.0207436 0.00942883 0.000999998 302.236 
694 1 0.0226224 0.0101149 0.000999989 324.731 
147 1 0.0240051 0.00907428 0.00200252 352.819 
983 1 0.0256274 0.00967679 0.000999989 319.977 
798 1 0.0278229 0.0101635 0.000999996 305.581 
966 1 0.0311269 0.00968438 0.000999995 306.264 
1186 1 0.033815 0.0102344 0.000999995 309.05 
1091 1 0.035782 0.00950263 0.000999993 315.52 
93 1 0.0382867 0.00960858 0.000999998 309.725 
1160 1 0.0399631 0.0106994 0.000999988 302.756 
575 1 0.0411762 0.00910919 0.00099999 309.972 
985 1 0.04312 0.00957997 0.000999996 302.9 
359 1 0.0453271 0.00941899 0.000999995 304.252 
969 1 0.0472618 0.00992566 0.000999998 300.786 
78 1 0.0492059 0.0103951 0.000999992 300.336 
363 1 0.000999994 0.0125472 0.000999995 300.157 
811 1 0.00296408 0.0122886 0.00127469 300.674 
743 1 0.00449491 0.0110312 0.000999993 301.424 
1251 1 0.00600936 0.0123375 0.000999995 301.239 
72 1 0.009055 0.0112752 0.000999994 304.4 
1313 1 0.0110293 0.0125265 0.00099999 304.144 
654 1 0.0139151 0.0120596 0.000999989 310.258 
271 1 0.0178305 0.0110472 0.000999998 300 
15 1 0.0191506 0.0123316 0.00178965 307.759 
215 1 0.0208644 0.0116686 0.00099999 310.512 
420 1 0.0226323 0.0118976 0.00190669 312.029 
449 1 0.0244555 0.012149 0.000999998 302.609 
39 1 0.0263672 0.0115349 0.000999992 307.522 
188 1 0.0295985 0.0111181 0.000999991 311.472 
425 1 0.028129 0.0124814 0.000999992 303.059 
1095 1 0.0312193 0.01229 0.000999998 300.002 
1227 1 0.033219 0.0122468 0.000999995 303.568 
119 1 0.0353447 0.0122903 0.000999998 300 
650 1 0.0369685 0.0111127 0.000999989 307.754 
1138 1 0.0386186 0.0122428 0.000999992 303.199 
979 1 0.0405124 0.0124274 0.00184388 304.585 
316 1 0.0424184 0.0117034 0.000999998 300.318 
1297 1 0.0443447 0.0111611 0.00099999 303.074 
1206 1 0.046545 0.0118446 0.000999993 300.978 
380 1 0.0484365 0.0121497 0.00157368 300.127 
347 1 0.00209295 0.014 0.00183359 300.139 
309 1 0.00396196 0.014 0.000999998 300.232 
1130 1 0.00566062 0.014 0.00205571 300.809 
807 1 0.00735927 0.014 0.000999991 300.64 
114 1 0.00931258 0.0135525 0.000999993 301.271 
240 1 0.0123816 0.014 0.000999997 302.019 
672 1 0.0144052 0.014 0.000999998 301.354 
729 1 0.0161846 0.014 0.00191321 306.379 
758 1 0.0179409 0.0137147 0.000999996 303.162 
1038 1 0.0199206 0.014 0.000999993 302.724 
81 1 0.0217812 0.0139926 0.00173331 305.581 
676 1 0.0236419 0.0139761 0.000999994 302.414 
534 1 0.0264796 0.013771 0.000999998 300 
526 1 0.0299137 0.014 0.000999997 300.378 
101 1 0.0322566 0.014 0.000999994 302.033 
1304 1 0.0342566 0.014 0.00099999 302.914 
1171 1 0.0370814 0.0139033 0.000999998 300 
442 1 0.0396097 0.014 0.000999989 301.903 
348 1 0.0423221 0.0137113 0.000999998 300 
626 1 0.0443208 0.014 0.000999994 300.232 
935 1 0.0466579 0.013944 0.000999998 300 
766 1 0.0489339 0.014 0.000999995 300.048 
728 1 0.00392052 -0.014 0.00238429 302.611 
1249 1 0.00256444 -0.0132265 0.00363435 307.357 
929 1 0.00450257 -0.0131416 0.00412055 312.623 
1137 1 0.00634469 -0.014 0.00274303 306.535 
1097 1 0.0078871 -0.0133954 0.0038635 322.197 
598 1 0.0095839 -0.014 0.0029944 313.535 
1056 1 0.0115791 -0.014 0.0031329 314.989 
747 1 0.0135702 -0.014 0.00294461 307.312 
1337 1 0.0162623 -0.0135725 0.00273454 303.463 
789 1 0.0184969 -0.014 0.00263796 316.816 
894 1 0.0203583 -0.014 0.00336963 315.989 
507 1 0.0220847 -0.0132262 0.00272104 311.639 
170 1 0.0250702 -0.014 0.00238244 307.331 
993 1 0.0240141 -0.0139722 0.00408059 325.197 
1048 1 0.0275175 -0.0134232 0.00263438 314.108 
1267 1 0.0262053 -0.014 0.00402915 304.338 
43 1 0.0295 -0.014 0.00274091 307.091 
1169 1 0.0312288 -0.014 0.00374657 319.065 
1008 1 0.0331407 -0.0134146 0.0037886 309.071 
1168 1 0.0342309 -0.014 0.00221734 305.003 
288 1 0.0350354 -0.014 0.00404837 310.089 
158 1 0.0375146 -0.014 0.00317125 300.944 
47 1 0.0406544 -0.0133617 0.00269294 308.838 
274 1 0.0425983 -0.014 0.00386091 307.061 
652 1 0.0441287 -0.014 0.00257328 302.4 
689 1 0.0463276 -0.014 0.00275222 300.515 
1184 1 0.0483371 -0.014 0.00274697 300.478 
1026 1 0.000999991 -0.0126891 0.00251021 303.029 
261 1 0.000999995 -0.011326 0.00397369 306.876 
1343 1 0.00301409 -0.0113076 0.00397475 317.687 
87 1 0.00423913 -0.0120312 0.0022356 302.656 
355 1 0.00504244 -0.0112267 0.00391614 324.211 
1208 1 0.00656471 -0.0120234 0.00253146 304.025 
22 1 0.00843274 -0.011079 0.00371936 333.593 
378 1 0.0101037 -0.0120919 0.00329275 318.084 
1220 1 0.0128444 -0.012285 0.00367402 315.379 
4 1 0.0145348 -0.0124065 0.00221646 308.179 
336 1 0.015519 -0.0118383 0.00386221 310.977 
622 1 0.0176585 -0.0122282 0.00224094 307.412 
1077 1 0.0174136 -0.0112732 0.00416425 331.306 
736 1 0.0189909 -0.012447 0.00379728 356.51 
681 1 0.0203697 -0.0122626 0.00236006 304.291 
859 1 0.022665 -0.0115618 0.00410205 342.602 
806 1 0.0239103 -0.0124121 0.00278814 324.27 
1152 1 0.0260548 -0.0120702 0.00246214 323.224 
999 1 0.0279366 -0.0119296 0.00389669 321.892 
1316 1 0.0289735 -0.011821 0.0021899 316.954 
797 1 0.029953 -0.0124734 0.00395094 318.75 
1264 1 0.0315301 -0.0122716 0.00273395 303.476 
20 1 0.0336445 -0.0118753 0.00261523 328.008 
1336 1 0.0350723 -0.0118548 0.00401562 315.328 
1126 1 0.0354465 -0.0110244 0.00213404 316.185 
233 1 0.0359508 -0.0129117 0.00256269 303.277 
450 1 0.0369507 -0.0113847 0.00340195 320.252 
160 1 0.0392319 -0.0123737 0.00369314 330.86 
724 1 0.0409925 -0.0114286 0.00230715 320.027 
876 1 0.0419024 -0.0120667 0.00396995 323.694 
872 1 0.0425493 -0.0128203 0.00223337 301.578 
704 1 0.0449215 -0.0120423 0.00276611 301.858 
945 1 0.0469145 -0.0120959 0.00292509 303.16 
221 1 0.0489219 -0.0120878 0.00278378 303.869 
1245 1 0.000999993 -0.00928449 0.00395345 311.862 
744 1 0.00199872 -0.0103191 0.00256345 309.937 
635 1 0.00390569 -0.00984746 0.00293895 321.011 
136 1 0.00590224 -0.00974057 0.00289044 326.063 
418 1 0.00782929 -0.00974667 0.00235529 326.834 
1057 1 0.0112144 -0.00913699 0.00230648 324.051 
259 1 0.0102857 -0.010154 0.00396539 361.645 
1318 1 0.0125372 -0.0106075 0.00262928 344.635 
725 1 0.0121185 -0.00937428 0.00414712 401.2 
1205 1 0.0144017 -0.00990101 0.00247217 355.662 
422 1 0.0163222 -0.0103914 0.00273907 327.47 
924 1 0.0183927 -0.0103733 0.00267041 337.545 
395 1 0.0200087 -0.0107212 0.00379621 339.251 
1195 1 0.0205045 -0.00947314 0.00231414 321.309 
500 1 0.0225748 -0.0102262 0.0026161 331.922 
213 1 0.0246572 -0.0105577 0.00272838 321.183 
909 1 0.0263344 -0.0095128 0.00242 344.871 
740 1 0.0265318 -0.0105259 0.00413308 360.052 
521 1 0.0284821 -0.00929895 0.00254496 355.247 
997 1 0.0297075 -0.0105331 0.00353251 348.675 
445 1 0.0304806 -0.00911342 0.00235493 346.224 
1261 1 0.0322714 -0.0104207 0.00289093 308.239 
529 1 0.0340991 -0.00964259 0.00265859 338.708 
277 1 0.0355513 -0.00991304 0.00402491 349.84 
124 1 0.0367214 -0.00947922 0.002462 342.955 
960 1 0.0385169 -0.0102744 0.00284128 337.041 
510 1 0.0401572 -0.0106169 0.00393302 377.959 
533 1 0.0434256 -0.0107171 0.00268929 313.157 
552 1 0.044975 -0.00945352 0.0026339 333.369 
697 1 0.0458235 -0.0106606 0.00398403 341.127 
440 1 0.0475928 -0.00981798 0.00358448 321.576 
1021 1 0.0490805 -0.0100354 0.00226562 309.064 
95 1 0.0495155 -0.0105984 0.00413479 318.491 
564 1 0.00099999 -0.00828587 0.00219099 309.705 
1178 1 0.00294431 -0.00812116 0.0026297 312.286 
1005 1 0.00493772 -0.00799531 0.00273643 343.176 
284 1 0.00642498 -0.00807971 0.00407095 361.203 
27 1 0.00807073 -0.00718883 0.00266529 365.326 
344 1 0.00938651 -0.00866083 0.00298457 351.664 
455 1 0.0105623 -0.00708018 0.00263943 368.72 
636 1 0.0124312 -0.00770239 0.00298568 360.763 
1006 1 0.0139625 -0.00858986 0.00391714 401.28 
457 1 0.0154895 -0.00790228 0.00238508 311.232 
719 1 0.0174886 -0.00898444 0.00379015 383.996 
970 1 0.0173748 -0.00710733 0.00303941 352.741 
179 1 0.019032 -0.00819104 0.00275844 367.222 
138 1 0.0218439 -0.00861733 0.00355266 380.153 
818 1 0.0203462 -0.00738063 0.00402971 431.336 
246 1 0.0236322 -0.00852863 0.00260825 332.471 
52 1 0.0251761 -0.00874884 0.00386041 379.423 
788 1 0.0270982 -0.00816529 0.00368523 378.451 
988 1 0.028116 -0.00722336 0.00224411 368.709 
490 1 0.0294674 -0.00792801 0.00361716 383.323 
84 1 0.031579 -0.00882185 0.0040007 418.251 
574 1 0.0326897 -0.00787248 0.00263506 339.325 
1270 1 0.0346324 -0.00763772 0.00222151 333.446 
890 1 0.0361877 -0.00783246 0.00346367 387.42 
51 1 0.0380266 -0.00798128 0.00269142 367.008 
631 1 0.0399048 -0.00892272 0.00234495 313.493 
96 1 0.0393912 -0.00787195 0.00414942 433.928 
511 1 0.0410111 -0.00732224 0.00280826 319.501 
466 1 0.041122 -0.00887299 0.00410041 437.85 
1303 1 0.0421003 -0.00893786 0.00235721 344.345 
958 1 0.0436162 -0.00824038 0.00345969 379.569 
801 1 0.0466159 -0.00823817 0.00279014 333.31 
12 1 0.0485517 -0.00783185 0.00249456 312.511 
1322 1 0.00166231 -0.00652449 0.00286836 326.965 
1341 1 0.00396419 -0.00627271 0.00244508 333.799 
558 1 0.00510905 -0.00651309 0.00406821 390.692 
1255 1 0.00617585 -0.0056989 0.0025853 351.9 
56 1 0.00920399 -0.00554256 0.00273928 387.671 
1328 1 0.0124008 -0.00589791 0.00386145 453.787 
981 1 0.0141383 -0.00669754 0.00326137 372.599 
63 1 0.016488 -0.00538171 0.00255375 374.387 
942 1 0.0197866 -0.00626282 0.00246853 389.357 
1115 1 0.0187325 -0.00616465 0.0041654 453.263 
394 1 0.0204476 -0.00512481 0.00397452 382.565 
433 1 0.0221624 -0.00664013 0.00363846 449.777 
1004 1 0.0238057 -0.00623755 0.0025719 383.673 
957 1 0.0256907 -0.00562412 0.0028533 339.709 
436 1 0.0276169 -0.00518118 0.0025475 386.14 
769 1 0.0283152 -0.00634638 0.0040305 454.182 
141 1 0.0300155 -0.00540323 0.00326521 388.465 
59 1 0.0319484 -0.00601689 0.00271977 346.331 
104 1 0.0339034 -0.00541545 0.00219479 324.345 
489 1 0.0353605 -0.00612222 0.00408883 397.718 
1166 1 0.0366481 -0.00613693 0.00250276 309.821 
58 1 0.0378524 -0.00653306 0.00405974 406.8 
593 1 0.0392466 -0.00639765 0.00263055 339.597 
897 1 0.041185 -0.00533196 0.00253628 356.868 
1 1 0.0428685 -0.00661072 0.0025736 329.97 
759 1 0.0446992 -0.00576291 0.00298167 340.856 
396 1 0.0462771 -0.0066257 0.00392378 379.113 
1234 1 0.0482705 -0.00512445 0.00266 314.238 
3839 1 0.0498275 -0.00635211 0.00292208 324.51 
539 1 0.000999991 -0.00463755 0.00284091 317.315 
502 1 0.0028692 -0.00496099 0.00348449 328.137 
1090 1 0.00241806 -0.00326162 0.00253127 322.94 
666 1 0.00465322 -0.00440221 0.00271947 333.818 
102 1 0.00755571 -0.00396157 0.00273142 375.568 
263 1 0.00952789 -0.00357948 0.00294262 415.463 
659 1 0.0111076 -0.00492458 0.00267413 342.708 
61 1 0.0132155 -0.00474062 0.00244835 377.37 
701 1 0.014857 -0.00485586 0.003585 420.909 
968 1 0.0144952 -0.00320426 0.00249262 371.689 
949 1 0.0164875 -0.00336364 0.00242094 355.19 
815 1 0.0184075 -0.00482756 0.00266398 378.615 
941 1 0.0219151 -0.00493099 0.00262965 368.204 
793 1 0.0203805 -0.00364863 0.00260586 375.855 
371 1 0.0217992 -0.00348212 0.00400576 494.467 
437 1 0.0237219 -0.00436751 0.00327611 363.233 
232 1 0.0256883 -0.00374046 0.00360621 387.677 
1053 1 0.0274331 -0.0032043 0.00278871 349.021 
1113 1 0.0294168 -0.00367225 0.0024619 388.088 
239 1 0.0285386 -0.00436099 0.00412155 488.966 
125 1 0.0313661 -0.00411936 0.00247416 346.145 
503 1 0.0305202 -0.00320882 0.00406428 441.916 
685 1 0.0338027 -0.00315327 0.00216831 325.897 
1183 1 0.0329001 -0.00455259 0.00369441 337.157 
607 1 0.0355435 -0.00451931 0.00290681 362.692 
670 1 0.0344352 -0.0033252 0.00406679 453.172 
337 1 0.0372277 -0.00348272 0.00320522 363.176 
1129 1 0.0385362 -0.00458563 0.00217014 329.063 
731 1 0.0397943 -0.0039422 0.00358553 420.672 
571 1 0.0429846 -0.00447594 0.00270542 320.503 
971 1 0.0428698 -0.00304037 0.00409671 397.866 
708 1 0.0447234 -0.00389631 0.00371446 330.243 
886 1 0.0466457 -0.00466918 0.00373368 316.987 
1181 1 0.0478672 -0.0031672 0.00257964 315.465 
7 1 0.000999995 -0.00224926 0.00351349 332.465 
194 1 0.00444504 -0.00241389 0.00266259 360.953 
824 1 0.00663811 -0.002199 0.00250483 359.793 
850 1 0.00789364 -0.0024833 0.00403545 374.508 
520 1 0.00878403 -0.00181657 0.00236061 376.136 
1122 1 0.011365 -0.00295271 0.00246086 381.626 
1071 1 0.0110248 -0.00157098 0.0038662 436.2 
1326 1 0.0128951 -0.00189142 0.00319063 390.135 
592 1 0.0149515 -0.00128289 0.00280888 377.371 
251 1 0.0169801 -0.001426 0.00247444 344.213 
702 1 0.0161354 -0.00228746 0.00406953 337.477 
1149 1 0.0180125 -0.00280077 0.00358607 425.214 
379 1 0.0189674 -0.00158635 0.00231587 356.547 
1284 1 0.0210353 -0.00176092 0.00269408 396.7 
794 1 0.0227832 -0.00284188 0.00238658 392.08 
448 1 0.0225297 -0.0013417 0.0039554 447.872 
1114 1 0.0242126 -0.00239472 0.00371208 461.948 
1335 1 0.0270199 -0.00120829 0.00282432 442.21 
687 1 0.0291767 -0.00168212 0.00229324 388.719 
753 1 0.0287052 -0.00236798 0.00411184 488.805 
628 1 0.0312942 -0.00143576 0.00223057 327.322 
937 1 0.0323336 -0.00265285 0.00342984 383.176 
637 1 0.0355118 -0.00215918 0.00284971 367.936 
998 1 0.0373732 -0.001489 0.00314284 341.753 
128 1 0.0393168 -0.00208354 0.00264561 326.636 
871 1 0.0411969 -0.00260098 0.00308983 310.697 
992 1 0.0426257 -0.00120919 0.00294356 318.192 
587 1 0.0438385 -0.00269671 0.00238109 333.547 
710 1 0.0445866 -0.00189194 0.0040522 387.085 
512 1 0.0461727 -0.00207084 0.00270327 303.285 
21 1 0.0478069 -0.00170423 0.00394202 348.891 
1170 1 0.0495766 -0.00258666 0.00344025 336.649 
822 1 0.000999987 -0.000473589 0.00259319 321.103 
109 1 0.0024542 -0.000832872 0.00391839 367.428 
528 1 0.00578114 -0.000842966 0.00394346 447.223 
242 1 0.00411277 -0.000225061 0.00285187 339.04 
144 1 0.00763281 -0.000245222 0.00300108 368.915 
1192 1 0.00914761 -0.000927255 0.00411472 423.724 
419 1 0.00945075 0.000512878 0.0026542 369.602 
412 1 0.0112445 -0.000305026 0.0023172 320.448 
1076 1 0.0126516 8.42543e-06 0.00379379 412.57 
62 1 0.0149188 0.000712616 0.0026792 381.757 
296 1 0.0169126 0.000567618 0.00261911 378.936 
1125 1 0.0179476 -0.000535511 0.00398153 400.536 
229 1 0.0189022 0.000404401 0.0024965 375.942 
1121 1 0.0207436 0.000143193 0.00323189 396.255 
1269 1 0.0233602 0.000450973 0.00361969 460.612 
182 1 0.0248598 -0.000777839 0.00272881 344.785 
438 1 0.0259157 0.000919027 0.00280466 423.58 
1194 1 0.0286065 0.000232978 0.00237905 383.223 
896 1 0.0318096 -0.000830484 0.00406577 431.961 
1030 1 0.0305119 0.000242498 0.00298658 376.922 
334 1 0.033172 -0.000725086 0.00260031 306.136 
19 1 0.0356439 -0.00022773 0.00234772 367.047 
65 1 0.0377027 0.000305464 0.00232351 336.474 
1120 1 0.0390534 -0.000489579 0.00382456 384.713 
1079 1 0.0395763 0.00096548 0.00255594 333.911 
1268 1 0.0407291 -0.00066785 0.0026123 330.123 
267 1 0.0425149 0.000767667 0.00266122 320.976 
307 1 0.0436758 2.84904e-05 0.00411238 401.257 
640 1 0.0445885 -0.000664407 0.00247324 338.468 
1235 1 0.0459945 0.00043435 0.00337651 320.342 
559 1 0.0474154 -0.000541394 0.0023621 303.492 
70 1 0.0493083 -0.000516063 0.00336394 317.183 
777 1 0.000999995 0.00110825 0.00381703 318.687 
471 1 0.000999996 0.00219067 0.00213525 313.097 
1043 1 0.00259936 0.0010612 0.00261711 333.867 
1165 1 0.0043985 0.00192522 0.00248846 354.774 
1342 1 0.00615918 0.00122393 0.00312734 367.017 
948 1 0.00824989 0.00209418 0.00238418 333.91 
73 1 0.00954494 0.00198347 0.0040064 399.005 
505 1 0.0109079 0.00187772 0.00253671 324.484 
921 1 0.0128894 0.00162969 0.00264707 324.491 
698 1 0.0148031 0.00263621 0.00214408 364.039 
542 1 0.0161275 0.00214771 0.00356089 366.16 
202 1 0.0179548 0.00149021 0.00405531 442.914 
1312 1 0.0198177 0.00190183 0.00345535 426.564 
1100 1 0.0218928 0.00199069 0.0026682 401.776 
902 1 0.024654 0.0020511 0.00386609 448.736 
715 1 0.0275718 0.00203697 0.00271739 410.617 
209 1 0.0292263 0.00157551 0.00374179 431.811 
68 1 0.030945 0.00242399 0.00317064 366.027 
189 1 0.0323332 0.0010903 0.00262827 327.495 
122 1 0.0331342 0.00221269 0.00408336 360.182 
1112 1 0.0343195 0.0011875 0.00284081 334.61 
1259 1 0.0371473 0.00244187 0.00221728 360.422 
570 1 0.0366618 0.0011466 0.00380976 394.151 
1070 1 0.0392343 0.0028996 0.00293307 316.635 