ITEM: TIMESTEP
21000000
ITEM: NUMBER OF ATOMS
5000
ITEM: BOX BOUNDS mm mm mm
0 0.1
-0.015 0.015
0 0.3
ITEM: ATOMS id type x y z f_Temp[0] 
977 1 0.00102825 -0.014 0.000999993 301.955 
581 1 0.00280539 -0.013082 0.000999998 300 
980 1 0.00536401 -0.0139934 0.000999992 304.459 
1252 1 0.00736682 -0.0139976 0.000999998 300 
648 1 0.00943464 -0.014 0.000999991 307.528 
1049 1 0.0114353 -0.0139954 0.000999998 300 
585 1 0.0133901 -0.013565 0.000999998 300 
453 1 0.0153494 -0.0139698 0.000999997 302.43 
812 1 0.0173493 -0.0139998 0.000999993 309.353 
1111 1 0.0195007 -0.0134438 0.000999984 309.7 
713 1 0.021422 -0.014 0.000999994 307.047 
1065 1 0.0234048 -0.014 0.00126756 304.183 
82 1 0.0265155 -0.0139931 0.000999994 312.256 
383 1 0.0285156 -0.014 0.000999992 309.777 
930 1 0.030521 -0.014 0.000999997 306.917 
936 1 0.0322405 -0.014 0.00202133 312.814 
1185 1 0.0365621 -0.014 0.000999997 304.285 
961 1 0.0387276 -0.014 0.00158109 314.323 
397 1 0.0415067 -0.014 0.000999998 309.839 
434 1 0.0453634 -0.0139995 0.000999989 307.615 
845 1 0.0473634 -0.013996 0.000999993 304.203 
69 1 0.0493634 -0.014 0.000999998 300 
775 1 0.00100002 -0.0113754 0.000999998 300 
100 1 0.0029795 -0.0110896 0.000999992 306.442 
914 1 0.00557519 -0.0112015 0.00100005 310.706 
80 1 0.00757517 -0.0111953 0.000999991 314.316 
451 1 0.00998402 -0.0120769 0.000999996 316.551 
796 1 0.00840292 -0.0126653 0.00207425 308.836 
693 1 0.0116631 -0.012314 0.00206038 327.169 
1317 1 0.0131863 -0.0115688 0.000999987 321.865 
915 1 0.0160944 -0.0121103 0.000999994 313.255 
410 1 0.0190455 -0.011496 0.000999996 312.582 
830 1 0.0224371 -0.0122702 0.000999998 301.024 
320 1 0.0247898 -0.0125822 0.000999992 314.166 
112 1 0.0274126 -0.0122056 0.000999996 318.648 
75 1 0.0305709 -0.0120006 0.000999993 317.099 
44 1 0.0325472 -0.012308 0.000999993 311.733 
903 1 0.0346614 -0.0124727 0.000999987 322.536 
501 1 0.0399655 -0.0125406 0.000999994 320.222 
606 1 0.0381813 -0.0121244 0.00200969 337.081 
895 1 0.0424953 -0.0112468 0.000999991 326.15 
98 1 0.0440827 -0.0124633 0.000999998 313.153 
591 1 0.0463632 -0.012189 0.000999998 300 
260 1 0.0483399 -0.0113954 0.000999988 323.346 
341 1 0.00236835 -0.00912792 0.000999989 308.223 
781 1 0.00434315 -0.00962605 0.00099999 313.664 
163 1 0.00630249 -0.00922482 0.000999992 318.09 
180 1 0.00969329 -0.0104144 0.00207298 347.799 
657 1 0.0113778 -0.0106424 0.000999994 317.343 
479 1 0.0130888 -0.00957115 0.00099999 326.687 
1334 1 0.0156328 -0.00933789 0.000999989 334.395 
236 1 0.0173021 -0.0105161 0.00100003 329.84 
463 1 0.0189969 -0.0094543 0.000999987 333.81 
1058 1 0.020961 -0.0109208 0.000999997 310.667 
214 1 0.021988 -0.00920459 0.000999991 334.059 
48 1 0.0236592 -0.010687 0.000999996 324.523 
1001 1 0.0256579 -0.0107646 0.000999989 321.205 
157 1 0.0275721 -0.0101849 0.00099999 339.745 
154 1 0.0295703 -0.010269 0.000999998 337.188 
849 1 0.0316898 -0.0101272 0.000999998 306.503 
986 1 0.0337356 -0.0106994 0.000999992 328.763 
352 1 0.0353603 -0.00937906 0.000999998 338.211 
391 1 0.037078 -0.0107965 0.00099999 334.902 
828 1 0.0380495 -0.00904828 0.000999991 347.957 
1302 1 0.0391669 -0.010707 0.000999988 332.306 
1153 1 0.0410033 -0.00991491 0.000999992 338.917 
1029 1 0.0435086 -0.00935559 0.000999995 332.941 
734 1 0.0450013 -0.0106867 0.000999997 317.937 
168 1 0.0467898 -0.0104128 0.001852 336.291 
673 1 0.0479253 -0.00900397 0.000999991 335.205 
230 1 0.00208414 -0.00710001 0.000999993 316.815 
962 1 0.00400567 -0.00765473 0.000999989 323.783 
829 1 0.00807393 -0.0082964 0.000999989 331.98 
409 1 0.0100683 -0.00814704 0.00100015 329.589 
524 1 0.0120481 -0.00786324 0.000999994 324.472 
1221 1 0.0140493 -0.00781583 0.000999998 305.74 
1092 1 0.0173393 -0.0086903 0.00181755 359.497 
461 1 0.016624 -0.00701102 0.000999992 332.838 
1062 1 0.0197951 -0.00762048 0.000999986 354.185 
790 1 0.0215614 -0.00748521 0.00192831 381.947 
200 1 0.0233297 -0.00737885 0.000999993 353.6 
602 1 0.0247258 -0.00899514 0.000999997 321.38 
546 1 0.0254076 -0.0074302 0.00204216 330.761 
1240 1 0.0269157 -0.00822994 0.000999998 311.889 
247 1 0.0292594 -0.00829331 0.00099999 352.561 
973 1 0.0315646 -0.00811889 0.00099999 340.198 
1319 1 0.0334732 -0.00871669 0.000999992 340.916 
947 1 0.0365133 -0.00779137 0.00138712 322.849 
238 1 0.0398083 -0.00744564 0.000999998 331.215 
162 1 0.0418495 -0.00748743 0.000999997 320.834 
367 1 0.0444121 -0.00769988 0.0016651 336.323 
1274 1 0.0459344 -0.00881346 0.000999986 348.366 
1074 1 0.049852 -0.00837823 0.000999998 300 
28 1 0.0010002 -0.00541922 0.000999994 309.798 
956 1 0.00299509 -0.00525874 0.000999998 300 
134 1 0.00500411 -0.00536152 0.000999994 332.322 
825 1 0.00684751 -0.00671657 0.000999995 329.993 
976 1 0.00894151 -0.00649438 0.000999994 342.41 
169 1 0.0109715 -0.00601028 0.000999993 342.836 
556 1 0.0129962 -0.00610228 0.000999995 343.517 
421 1 0.0149261 -0.00609382 0.001525 349.81 
1217 1 0.0184323 -0.00615665 0.000999998 337.876 
1325 1 0.021061 -0.00573778 0.000999998 300 
496 1 0.0230199 -0.00528279 0.000999996 359.529 
639 1 0.024956 -0.005784 0.00099999 355.455 
1151 1 0.0269057 -0.0062297 0.000999984 355.175 
443 1 0.0289785 -0.0054423 0.000999998 300 
1231 1 0.0310306 -0.00545215 0.000999998 300 
146 1 0.0303193 -0.00698151 0.00207498 385.044 
1290 1 0.0330366 -0.00676492 0.000999997 331.44 
1075 1 0.0353259 -0.00621403 0.000999995 330.818 
618 1 0.038025 -0.00654034 0.000999998 310.468 
83 1 0.0399098 -0.00544822 0.000999985 355.759 
974 1 0.0424605 -0.00544572 0.000999991 352.186 
1289 1 0.0449382 -0.00588859 0.000999992 344.221 
772 1 0.0466402 -0.00609637 0.0020296 373.893 
530 1 0.0482999 -0.00652692 0.000999994 337.826 
283 1 0.00371052 -0.00338741 0.000999998 300 
750 1 0.00569455 -0.00311853 0.000999998 300.003 
234 1 0.00689912 -0.00471724 0.000999994 342.991 
1025 1 0.0080869 -0.00310805 0.000999998 300 
139 1 0.00957604 -0.00451692 0.000999998 300 
791 1 0.0119528 -0.0041857 0.000999985 358.302 
402 1 0.0153626 -0.004214 0.000999994 344.578 
1087 1 0.017357 -0.00447035 0.000999991 354.214 
519 1 0.0193899 -0.00431182 0.000999993 360.126 
275 1 0.0216938 -0.00378558 0.000999994 344.165 
142 1 0.0249492 -0.00393316 0.00175782 378.76 
90 1 0.0267754 -0.00423396 0.000999996 348.588 
492 1 0.032699 -0.00434362 0.000999993 340.004 
749 1 0.0350091 -0.00423928 0.000999994 344.577 
1187 1 0.0369358 -0.00484893 0.000999997 324.571 
175 1 0.0402006 -0.00358298 0.00166048 372.401 
1050 1 0.0420853 -0.00347573 0.000999995 332.529 
846 1 0.0439728 -0.00413701 0.000999988 344.671 
424 1 0.0456873 -0.00431841 0.00201368 356.029 
1243 1 0.0474114 -0.00430605 0.000999998 335.744 
3721 1 0.0493439 -0.00482097 0.000999988 331.671 
77 1 0.00106514 -0.00208039 0.000999998 300 
37 1 0.00269634 -0.00135299 0.00200246 340.973 
1108 1 0.00442621 -0.00130241 0.000999983 339.265 
385 1 0.0074663 -0.0011745 0.000999988 346.188 
89 1 0.0100507 -0.00255568 0.000999998 300 
318 1 0.0118586 -0.00167902 0.000999998 329.64 
32 1 0.0138228 -0.00205531 0.000999998 326.492 
964 1 0.0158217 -0.00212183 0.000999998 321.263 
1180 1 0.0177825 -0.00251614 0.000999993 340.685 
885 1 0.0201852 -0.00247261 0.000999997 348.104 
264 1 0.0220832 -0.00158202 0.000999986 370.708 
258 1 0.0241116 -0.00228266 0.001 382.852 
291 1 0.0258098 -0.00110755 0.000999998 333.71 
1052 1 0.0282802 -0.00291658 0.000999992 368.774 
486 1 0.0304223 -0.00274938 0.000999993 352.871 
401 1 0.0328101 -0.00186878 0.000999996 329.441 
91 1 0.0348112 -0.00186302 0.00099999 344.016 
1248 1 0.0364864 -0.00291987 0.00127711 333.802 
1196 1 0.0384654 -0.00283657 0.000999995 330.519 
351 1 0.0409167 -0.00183629 0.000999995 340.482 
1003 1 0.0429074 -0.00158966 0.000999997 330.635 
545 1 0.0452833 -0.00262575 0.000999997 337.07 
31 1 0.0472197 -0.00212533 0.000999991 329.348 
1027 1 0.0491105 -0.00283465 0.000999996 312.246 
620 1 0.00150677 0.000624044 0.000999984 319.427 
817 1 0.00370955 0.000569666 0.000999998 300 
127 1 0.00591125 -0.000406584 0.00199601 374.416 
306 1 0.00756563 0.000823028 0.000999994 326.703 
167 1 0.00960301 -0.000600847 0.000999992 349.822 
721 1 0.0132144 -0.000384327 0.00191523 396.36 
33 1 0.0157874 -0.000111223 0.000999998 300 
522 1 0.0178045 -0.000351725 0.000999998 300 
1330 1 0.0201725 -0.000472039 0.000999998 300 
624 1 0.0239822 -0.000286865 0.000999988 366.454 
799 1 0.0222849 0.000162791 0.00195755 404.445 
644 1 0.0278053 -0.000973797 0.000999988 373.613 
181 1 0.0267602 0.000746068 0.000999994 366.592 
289 1 0.0300684 -0.000444246 0.000999989 355.391 
899 1 0.0320249 -2.93762e-05 0.000999997 326.269 
184 1 0.0341146 1.68707e-05 0.000999998 305.827 
1191 1 0.0369447 -0.000988265 0.000999998 313.204 
625 1 0.0395917 -0.00029103 0.000999998 321.841 
250 1 0.0417007 7.81933e-06 0.000999996 337.515 
1247 1 0.0440457 0.000574462 0.000999991 340.828 
518 1 0.045939 -0.000588995 0.000999992 345.201 
198 1 0.0476838 0.000898658 0.000999998 300 
527 1 0.0488465 -0.000852146 0.000999995 318.182 
904 1 0.0494914 0.00083641 0.00185608 347.186 
305 1 0.00264916 0.00226565 0.00100002 325.569 
408 1 0.00557638 0.00129512 0.000999993 344.331 
1037 1 0.00643218 0.00282586 0.00196146 365.773 
1054 1 0.00968458 0.00225442 0.000999996 326.255 
310 1 0.0118962 0.00105152 0.000999998 310.336 
364 1 0.0129022 0.00293552 0.000999998 317.487 
392 1 0.0139525 0.00123354 0.000999991 350.304 
430 1 0.0169059 0.00174167 0.000999993 352.586 
723 1 0.0189959 0.0017279 0.000999992 346.569 
279 1 0.0209923 0.00135248 0.000999998 300 
1099 1 0.0248586 0.00295496 0.000999993 360.393 
1044 1 0.0241312 0.00141222 0.00204443 415.512 
1226 1 0.0268526 0.0027672 0.000999989 379.838 
474 1 0.0285332 0.00167963 0.000999992 356.492 
1175 1 0.0304799 0.00146998 0.0014079 370.576 
280 1 0.033244 0.0018183 0.000999998 314.483 
476 1 0.0350733 0.0024588 0.0014934 352.413 
735 1 0.0363974 0.00104339 0.000999985 363.333 
311 1 0.0384834 0.00158561 0.000999987 361.699 
562 1 0.0405308 0.00178272 0.000999989 349.272 
197 1 0.0425283 0.0018813 0.000999995 330.602 
615 1 0.0443907 0.00261031 0.000999986 344.534 
568 1 0.0458138 0.00132471 0.00156747 373.221 
1197 1 0.0497082 0.00263088 0.000999994 342.499 
366 1 0.00100063 0.00383724 0.000999997 306.181 
920 1 0.0043839 0.00326097 0.00099999 327.037 
1036 1 0.00644525 0.00457953 0.000999989 327.787 
314 1 0.00844619 0.00420132 0.000999998 300 
1224 1 0.0104826 0.00408961 0.000999992 337.157 
1124 1 0.0123036 0.0049164 0.000999992 344.47 
1286 1 0.0152051 0.00422662 0.000999983 355.121 
972 1 0.0186014 0.00369399 0.000999996 328.448 
493 1 0.0202753 0.0030119 0.00185588 397.214 
939 1 0.02075 0.00475605 0.000999988 366.444 
923 1 0.0220823 0.00307749 0.000999993 356.048 
241 1 0.0235323 0.00445514 0.00099999 368.768 
322 1 0.0254857 0.00479463 0.00147149 376.059 
485 1 0.0274261 0.00468323 0.000999995 354.372 
814 1 0.0294225 0.00456453 0.000999989 361.517 
1229 1 0.031651 0.00303909 0.000999991 354.828 
879 1 0.0329336 0.00472697 0.000999998 300 
1019 1 0.0354244 0.00436559 0.000999992 346.317 
26 1 0.0374497 0.00408387 0.000999998 300 
946 1 0.0393305 0.00340354 0.000999998 316.456 
1314 1 0.041438 0.0035651 0.000999997 334.447 
300 1 0.0429164 0.00497018 0.000999991 340.594 
757 1 0.0450353 0.00455744 0.000999996 329.535 
121 1 0.0464429 0.00313648 0.000999998 300 
2899 1 0.0491937 0.0045982 0.000999981 348.751 
235 1 0.0481355 0.00327053 0.00205706 380.384 
852 1 0.00147344 0.00578054 0.000999994 304.3 
143 1 0.00359123 0.00509717 0.000999997 320.318 
712 1 0.00611097 0.00655139 0.000999995 319.258 
857 1 0.00765647 0.00583318 0.0020467 338.035 
156 1 0.0101026 0.0060671 0.000999991 333.661 
733 1 0.0125017 0.00690655 0.000999988 342.204 
761 1 0.0142907 0.00601076 0.000999998 300 
1306 1 0.0170989 0.00501409 0.000999991 338.628 
1285 1 0.0165013 0.00696616 0.000999998 309.57 
237 1 0.0189814 0.0056897 0.000999997 334.988 
621 1 0.0222928 0.00602882 0.00099999 351.373 
1134 1 0.0242725 0.00631312 0.000999989 356.363 
1154 1 0.028986 0.0067722 0.000999991 358.02 
332 1 0.0310772 0.00569306 0.000999998 300 
404 1 0.0326452 0.00696578 0.000999994 340.209 
1299 1 0.0344553 0.0061151 0.000999994 338.85 
1088 1 0.0366774 0.00592881 0.000999988 369.685 
54 1 0.0390828 0.00538836 0.000999994 336.163 
176 1 0.0410339 0.00582837 0.000999992 333.293 
544 1 0.0455148 0.00651467 0.000999998 300 
469 1 0.0472716 0.00515104 0.000999995 325.123 
14 1 0.0486979 0.00655309 0.000999996 330.683 
741 1 0.000999996 0.00772368 0.00100003 303.975 
187 1 0.00278473 0.00862649 0.000999991 307.837 
540 1 0.00401709 0.00705129 0.000999987 314.628 
193 1 0.00477755 0.00895732 0.000999998 300 
253 1 0.0068207 0.00842122 0.000999996 314.483 
959 1 0.00850773 0.00730957 0.000999992 322.875 
328 1 0.0114071 0.00885012 0.000999998 300 
718 1 0.0132987 0.00844915 0.0019926 344.646 
978 1 0.0151909 0.00848408 0.000999991 335.876 
488 1 0.0171399 0.00893312 0.000999991 331.571 
847 1 0.0186891 0.00766823 0.000999992 338.105 
473 1 0.0206947 0.00740123 0.000999998 300 
854 1 0.0226507 0.00799697 0.000999991 357.487 
207 1 0.026375 0.00739617 0.000999998 300.143 
513 1 0.0293352 0.00896057 0.00151575 334.367 
651 1 0.0307733 0.00766986 0.000999989 341.249 
1298 1 0.0326488 0.00875108 0.00190147 336.064 
1244 1 0.0353883 0.00770327 0.00177925 374.621 
611 1 0.0372176 0.00791835 0.000999986 344.053 
730 1 0.03936 0.00754646 0.000999997 330.706 
835 1 0.0417267 0.00744182 0.00195747 379.279 
110 1 0.0436805 0.00766014 0.000999996 329.03 
428 1 0.0469194 0.00795518 0.000999997 306.509 
174 1 0.0497579 0.00825521 0.000999987 340.8 
205 1 0.00100021 0.00991911 0.000999985 302.709 
177 1 0.00272024 0.0104073 0.001908 305.316 
674 1 0.00638342 0.0103728 0.000999989 310.67 
79 1 0.00942032 0.00908922 0.000999998 318.799 
1320 1 0.0104938 0.0103921 0.00207241 328.627 
779 1 0.012119 0.0108494 0.00100017 320.65 
292 1 0.0139551 0.0100566 0.000999991 326.75 
11 1 0.015904 0.0105056 0.00099999 324.973 
50 1 0.0188973 0.00950435 0.00176508 324.885 
1042 1 0.0207436 0.00942881 0.000999998 307.181 
694 1 0.0226224 0.0101149 0.000999989 339.083 
147 1 0.0240051 0.00907428 0.00200252 375.124 
983 1 0.0256274 0.00967679 0.000999989 336.559 
798 1 0.0278229 0.0101635 0.000999996 315.003 
966 1 0.0311269 0.00968438 0.000999995 319.869 
1186 1 0.033815 0.0102344 0.000999995 325.898 
1091 1 0.035782 0.00950263 0.000999993 339.898 
93 1 0.0382867 0.00960858 0.000999998 332.299 
1160 1 0.0399631 0.0106994 0.000999988 316.145 
575 1 0.0411762 0.00910919 0.00099999 333.806 
985 1 0.04312 0.00957997 0.000999996 316.654 
359 1 0.0453271 0.00941899 0.000999995 322.999 
969 1 0.0472618 0.00992566 0.000999998 309.668 
78 1 0.0492059 0.0103951 0.000999992 309.918 
363 1 0.000999994 0.0125472 0.000999995 300.7 
811 1 0.00296408 0.0122886 0.00127469 302.476 
743 1 0.00449491 0.0110312 0.000999993 304.044 
1251 1 0.00600936 0.0123375 0.000999995 303.5 
72 1 0.009055 0.0112752 0.000999994 310.573 
1313 1 0.0110293 0.0125265 0.00099999 309.682 
654 1 0.0139151 0.0120596 0.000999989 318.382 
271 1 0.0178307 0.0110467 0.000999998 300 
15 1 0.0191506 0.0123316 0.00178965 318.28 
215 1 0.0208644 0.0116686 0.00099999 319.818 
420 1 0.0226323 0.0118976 0.00190669 327.084 
449 1 0.0244554 0.012149 0.000999998 309.542 
39 1 0.0263672 0.0115349 0.000999992 317.237 
188 1 0.0295985 0.0111181 0.000999991 325.255 
425 1 0.028129 0.0124814 0.000999992 308.233 
1095 1 0.0312193 0.01229 0.000999998 300 
1227 1 0.033219 0.0122468 0.000999995 313.36 
119 1 0.0353449 0.0122918 0.000999998 300 
650 1 0.0369685 0.0111127 0.000999989 325.608 
1138 1 0.0386186 0.0122428 0.000999992 317.187 
979 1 0.0405124 0.0124274 0.00184388 324.749 
316 1 0.0424181 0.0117033 0.000999998 305.162 
1297 1 0.0443447 0.0111611 0.00099999 319.642 
1206 1 0.046545 0.0118446 0.000999993 313.891 
380 1 0.0484365 0.0121497 0.00157368 306.281 
347 1 0.00209295 0.014 0.00183359 300.685 
309 1 0.00396196 0.014 0.000999998 300.988 
1130 1 0.00566062 0.014 0.00205571 302.719 
807 1 0.00735927 0.014 0.000999991 302.105 
114 1 0.00931258 0.0135525 0.000999993 303.87 
240 1 0.0123816 0.014 0.000999997 304.575 
672 1 0.0144052 0.014 0.000999998 303.346 
729 1 0.0161846 0.014 0.00191321 312.106 
758 1 0.0179409 0.0137147 0.000999996 308.125 
1038 1 0.0199206 0.014 0.000999993 307.249 
81 1 0.0217812 0.0139926 0.00173331 313.396 
676 1 0.0236419 0.0139761 0.000999994 307.104 
534 1 0.0264767 0.0137802 0.000999998 300 
526 1 0.0299137 0.014 0.000999997 302.697 
101 1 0.0322566 0.014 0.000999994 307.468 
1304 1 0.0342566 0.014 0.00099999 309.27 
1171 1 0.0370599 0.0139138 0.000999998 300 
442 1 0.0396097 0.014 0.000999989 312.32 
348 1 0.0423174 0.0137134 0.000999998 300 
626 1 0.0443208 0.014 0.000999994 304.336 
935 1 0.0466476 0.0139502 0.000999998 300 
766 1 0.0489339 0.014 0.000999995 303.771 
728 1 0.00392052 -0.014 0.00238429 305.58 
1249 1 0.00256444 -0.0132265 0.00363435 313.191 
929 1 0.00450257 -0.0131416 0.00412055 323.014 
1137 1 0.00634469 -0.014 0.00274303 310.972 
1097 1 0.0078871 -0.0133954 0.0038635 330.702 
598 1 0.0095839 -0.014 0.0029944 319.787 
1056 1 0.0115791 -0.014 0.0031329 321.408 
747 1 0.0135702 -0.014 0.00294461 312.66 
1337 1 0.0162623 -0.0135725 0.00273454 307.753 
789 1 0.0184969 -0.014 0.00263796 322.473 
894 1 0.0203583 -0.014 0.00336963 323.936 
507 1 0.0220847 -0.0132262 0.00272104 322.166 
170 1 0.0250702 -0.014 0.00238244 314.968 
993 1 0.0240141 -0.0139722 0.00408059 339.205 
1048 1 0.0275175 -0.0134232 0.00263438 327.213 
1267 1 0.0262053 -0.014 0.00402915 311.691 
43 1 0.0295 -0.014 0.00274091 318.377 
1169 1 0.0312288 -0.014 0.00374657 337.125 
1008 1 0.0331407 -0.0134146 0.0037886 327.403 
1168 1 0.0342309 -0.014 0.00221734 315.954 
288 1 0.0350354 -0.014 0.00404837 326.652 
158 1 0.0375146 -0.014 0.00317125 307.991 
47 1 0.0406544 -0.0133617 0.00269294 333.921 
274 1 0.0425983 -0.014 0.00386091 327.941 
652 1 0.0441287 -0.014 0.00257328 316.41 
689 1 0.0463276 -0.014 0.00275222 311.8 
1184 1 0.0483371 -0.014 0.00274697 310.881 
1026 1 0.000999991 -0.0126891 0.00251021 305.7 
261 1 0.000999995 -0.011326 0.00397369 310.725 
1343 1 0.00301409 -0.0113076 0.00397475 326.341 
87 1 0.00423913 -0.0120312 0.0022356 306.766 
355 1 0.00504244 -0.0112267 0.00391614 337.749 
1208 1 0.00656471 -0.0120234 0.00253146 309.385 
22 1 0.00843274 -0.011079 0.00371936 349.948 
378 1 0.0101037 -0.0120919 0.00329275 332.003 
1220 1 0.0128444 -0.012285 0.00367402 327.678 
4 1 0.0145348 -0.0124065 0.00221646 315.606 
336 1 0.015519 -0.0118383 0.00386221 323.291 
622 1 0.0176585 -0.0122282 0.00224094 313.746 
1077 1 0.0174136 -0.0112732 0.00416425 350.848 
736 1 0.0189909 -0.012447 0.00379728 368.763 
681 1 0.0203697 -0.0122626 0.00236006 310.782 
859 1 0.022665 -0.0115618 0.00410205 362.812 
806 1 0.0239103 -0.0124121 0.00278814 341.108 
1152 1 0.0260548 -0.0120702 0.00246214 339.249 
999 1 0.0279366 -0.0119296 0.00389669 346.629 
1316 1 0.0289735 -0.011821 0.0021899 337.158 
797 1 0.029953 -0.0124734 0.00395094 343.295 
1264 1 0.0315301 -0.0122716 0.00273395 314.011 
20 1 0.0336445 -0.0118753 0.00261523 352.575 
1336 1 0.0350723 -0.0118548 0.00401562 344.432 
1126 1 0.0354465 -0.0110244 0.00213404 341.22 
233 1 0.0359508 -0.0129117 0.00256269 316.007 
450 1 0.0369507 -0.0113847 0.00340195 352.307 
160 1 0.0392319 -0.0123737 0.00369314 367.194 
724 1 0.0409925 -0.0114286 0.00230715 349.145 
876 1 0.0419024 -0.0120667 0.00396995 366.148 
872 1 0.0425493 -0.0128203 0.00223337 313.667 
704 1 0.0449215 -0.0120423 0.00276611 324.452 
945 1 0.0469145 -0.0120959 0.00292509 333.867 
221 1 0.0489219 -0.0120878 0.00278378 335.14 
1245 1 0.000999993 -0.00928449 0.00395345 316.644 
744 1 0.00199872 -0.0103191 0.00256345 315.642 
635 1 0.00390569 -0.00984746 0.00293895 330.484 
136 1 0.00590224 -0.00974057 0.00289044 339.21 
418 1 0.00782929 -0.00974667 0.00235529 340.962 
1057 1 0.0112144 -0.00913699 0.00230648 341.441 
259 1 0.0102857 -0.010154 0.00396539 383.103 
1318 1 0.0125372 -0.0106075 0.00262928 356.315 
725 1 0.0121185 -0.00937428 0.00414712 413.581 
1205 1 0.0144017 -0.00990101 0.00247217 366.705 
422 1 0.0163222 -0.0103914 0.00273907 342.036 
924 1 0.0183927 -0.0103733 0.00267041 356.709 
395 1 0.0200087 -0.0107212 0.00379621 362.458 
1195 1 0.0205045 -0.00947314 0.00231414 340.22 
500 1 0.0225748 -0.0102262 0.0026161 351.619 
213 1 0.0246572 -0.0105577 0.00272838 343.218 
909 1 0.0263344 -0.0095128 0.00242 371.168 
740 1 0.0265318 -0.0105259 0.00413308 389.511 
521 1 0.0284821 -0.00929895 0.00254496 388.946 
997 1 0.0297075 -0.0105331 0.00353251 379.175 
445 1 0.0304806 -0.00911342 0.00235493 372.201 
1261 1 0.0322714 -0.0104207 0.00289093 323.058 
529 1 0.0340991 -0.00964259 0.00265859 364.324 
277 1 0.0355513 -0.00991304 0.00402491 394.947 
124 1 0.0367214 -0.00947922 0.002462 384.43 
960 1 0.0385169 -0.0102744 0.00284128 371.056 
510 1 0.0401572 -0.0106169 0.00393302 411.881 
533 1 0.0434256 -0.0107171 0.00268929 358.398 
552 1 0.044975 -0.00945352 0.0026339 395.953 
697 1 0.0458235 -0.0106606 0.00398403 408.218 
440 1 0.0475928 -0.00981798 0.00358448 381.599 
1021 1 0.0490805 -0.0100354 0.00226562 359.511 
95 1 0.0495155 -0.0105984 0.00413479 392.471 
564 1 0.00099999 -0.00828587 0.00219099 314.043 
1178 1 0.00294431 -0.00812116 0.0026297 320.844 
1005 1 0.00493772 -0.00799531 0.00273643 353.71 
284 1 0.00642498 -0.00807971 0.00407095 377.913 
27 1 0.00807073 -0.00718883 0.00266529 379.393 
344 1 0.00938651 -0.00866083 0.00298457 371.368 
455 1 0.0105623 -0.00708018 0.00263943 386.515 
636 1 0.0124312 -0.00770239 0.00298568 382.731 
1006 1 0.0139625 -0.00858986 0.00391714 416.429 
457 1 0.0154895 -0.00790228 0.00238508 321.559 
719 1 0.0174886 -0.00898444 0.00379015 402.288 
970 1 0.0173748 -0.00710733 0.00303941 381.236 
179 1 0.019032 -0.00819104 0.00275844 388.51 
138 1 0.0218439 -0.00861733 0.00355266 403.509 
818 1 0.0203462 -0.00738063 0.00402971 446.398 
246 1 0.0236322 -0.00852863 0.00260825 353.586 
52 1 0.0251761 -0.00874884 0.00386041 402.712 
788 1 0.0270982 -0.00816529 0.00368523 409.006 
988 1 0.028116 -0.00722336 0.00224411 393.975 
490 1 0.0294674 -0.00792801 0.00361716 429.221 
84 1 0.031579 -0.00882185 0.0040007 448.339 
574 1 0.0326897 -0.00787248 0.00263506 379.835 
1270 1 0.0346324 -0.00763772 0.00222151 371.882 
890 1 0.0361877 -0.00783246 0.00346367 438.043 
51 1 0.0380266 -0.00798128 0.00269142 420.783 
631 1 0.0399048 -0.00892272 0.00234495 345.168 
96 1 0.0393912 -0.00787195 0.00414942 495.111 
511 1 0.0410111 -0.00732224 0.00280826 369.765 
466 1 0.041122 -0.00887299 0.00410041 493.085 
1303 1 0.0421003 -0.00893786 0.00235721 393.473 
958 1 0.0436162 -0.00824038 0.00345969 440.058 
801 1 0.0466159 -0.00823817 0.00279014 402.795 
12 1 0.0485517 -0.00783185 0.00249456 374.69 
1322 1 0.00166231 -0.00652449 0.00286836 333.497 
1341 1 0.00396419 -0.00627271 0.00244508 345.191 
558 1 0.00510905 -0.00651309 0.00406821 394.694 
1255 1 0.00617585 -0.0056989 0.0025853 362.746 
56 1 0.00920399 -0.00554256 0.00273928 401.069 
1328 1 0.0124008 -0.00589791 0.00386145 464.754 
981 1 0.0141383 -0.00669754 0.00326137 394.053 
63 1 0.016488 -0.00538171 0.00255375 402.157 
942 1 0.0197866 -0.00626282 0.00246853 417.518 
1115 1 0.0187325 -0.00616465 0.0041654 482.197 
394 1 0.0204476 -0.00512481 0.00397452 424.136 
433 1 0.0221624 -0.00664013 0.00363846 460.779 
1004 1 0.0238057 -0.00623755 0.0025719 401.571 
957 1 0.0256907 -0.00562412 0.0028533 370.829 
436 1 0.0276169 -0.00518118 0.0025475 414.68 
769 1 0.0283152 -0.00634638 0.0040305 477.289 
141 1 0.0300155 -0.00540323 0.00326521 440.045 
59 1 0.0319484 -0.00601689 0.00271977 397.047 
104 1 0.0339034 -0.00541545 0.00219479 369.296 
489 1 0.0353605 -0.00612222 0.00408883 455.211 
1166 1 0.0366481 -0.00613693 0.00250276 335.034 
58 1 0.0378524 -0.00653306 0.00405974 469.101 
593 1 0.0392466 -0.00639765 0.00263055 395.076 
897 1 0.041185 -0.00533196 0.00253628 406.676 
1 1 0.0428685 -0.00661072 0.0025736 390.003 
759 1 0.0446992 -0.00576291 0.00298167 403.477 
396 1 0.0462771 -0.0066257 0.00392378 449.327 
1234 1 0.0482705 -0.00512445 0.00266 378.015 
3839 1 0.0498275 -0.00635211 0.00292208 408.706 
539 1 0.000999991 -0.00463755 0.00284091 322.524 
502 1 0.0028692 -0.00496099 0.00348449 343.73 
1090 1 0.00241806 -0.00326162 0.00253127 334.187 
666 1 0.00465322 -0.00440221 0.00271947 352.909 
102 1 0.00755571 -0.00396157 0.00273142 395.628 
263 1 0.00952789 -0.00357948 0.00294262 429.909 
659 1 0.0111076 -0.00492458 0.00267413 373.341 
61 1 0.0132155 -0.00474062 0.00244835 397.347 
701 1 0.014857 -0.00485586 0.003585 445.85 
968 1 0.0144952 -0.00320426 0.00249262 399.494 
949 1 0.0164875 -0.00336364 0.00242094 387.607 
815 1 0.0184075 -0.00482756 0.00266398 408.345 
941 1 0.0219151 -0.00493099 0.00262965 401.125 
793 1 0.0203805 -0.00364863 0.00260586 409.274 
371 1 0.0217992 -0.00348212 0.00400576 509.339 
437 1 0.0237219 -0.00436751 0.00327611 398.135 
232 1 0.0256883 -0.00374046 0.00360621 435.135 
1053 1 0.0274331 -0.0032043 0.00278871 392.81 
1113 1 0.0294168 -0.00367225 0.0024619 427.043 
239 1 0.0285386 -0.00436099 0.00412155 508.627 
125 1 0.0313661 -0.00411936 0.00247416 393.008 
503 1 0.0305202 -0.00320882 0.00406428 495.893 
685 1 0.0338027 -0.00315327 0.00216831 359.269 
1183 1 0.0329001 -0.00455259 0.00369441 392.714 
607 1 0.0355435 -0.00451931 0.00290681 416.601 
670 1 0.0344352 -0.0033252 0.00406679 496.092 
337 1 0.0372277 -0.00348272 0.00320522 426.3 
1129 1 0.0385362 -0.00458563 0.00217014 380.584 
731 1 0.0397943 -0.0039422 0.00358553 474.947 
571 1 0.0429846 -0.00447594 0.00270542 370.469 
971 1 0.0428698 -0.00304037 0.00409671 480.746 
708 1 0.0447234 -0.00389631 0.00371446 408.316 
886 1 0.0466457 -0.00466918 0.00373368 378.842 
1181 1 0.0478672 -0.0031672 0.00257964 375.59 
7 1 0.000999995 -0.00224926 0.00351349 335.385 
194 1 0.00444504 -0.00241389 0.00266259 375.184 
824 1 0.00663811 -0.002199 0.00250483 385.176 
850 1 0.00789364 -0.0024833 0.00403545 405.432 
520 1 0.00878403 -0.00181657 0.00236061 393.085 
1122 1 0.011365 -0.00295271 0.00246086 406.435 
1071 1 0.0110248 -0.00157098 0.0038662 461.499 
1326 1 0.0128951 -0.00189142 0.00319063 422.558 
592 1 0.0149515 -0.00128289 0.00280888 416.31 
251 1 0.0169801 -0.001426 0.00247444 382.464 
702 1 0.0161354 -0.00228746 0.00406953 381.17 
1149 1 0.0180125 -0.00280077 0.00358607 453.549 
379 1 0.0189674 -0.00158635 0.00231587 384.981 
1284 1 0.0210353 -0.00176092 0.00269408 434.011 
794 1 0.0227832 -0.00284188 0.00238658 419.624 
448 1 0.0225297 -0.0013417 0.0039554 488.844 
1114 1 0.0242126 -0.00239472 0.00371208 491.643 
1335 1 0.0270199 -0.00120829 0.00282432 470.062 
687 1 0.0291767 -0.00168212 0.00229324 419.8 
753 1 0.0287052 -0.00236798 0.00411184 516.22 
628 1 0.0312942 -0.00143576 0.00223057 358.457 
937 1 0.0323336 -0.00265285 0.00342984 436.71 
637 1 0.0355118 -0.00215918 0.00284971 414.417 
998 1 0.0373732 -0.001489 0.00314284 402.882 
128 1 0.0393168 -0.00208354 0.00264561 374.752 
871 1 0.0411969 -0.00260098 0.00308983 353.722 
992 1 0.0426257 -0.00120919 0.00294356 372.947 
587 1 0.0438385 -0.00269671 0.00238109 392.016 
710 1 0.0445866 -0.00189194 0.0040522 470.784 
512 1 0.0461727 -0.00207084 0.00270327 333.625 
21 1 0.0478069 -0.00170423 0.00394202 453.039 
1170 1 0.0495766 -0.00258666 0.00344025 406.662 
822 1 0.000999987 -0.000473589 0.00259319 325.716 
109 1 0.0024542 -0.000832872 0.00391839 370.512 
528 1 0.00578114 -0.000842966 0.00394346 440.568 
242 1 0.00411277 -0.000225061 0.00285187 353.621 
144 1 0.00763281 -0.000245222 0.00300108 392.239 
1192 1 0.00914761 -0.000927255 0.00411472 444.156 
419 1 0.00945075 0.000512878 0.0026542 394.372 
412 1 0.0112445 -0.000305026 0.0023172 338.604 
1076 1 0.0126516 8.42539e-06 0.00379379 454.614 
62 1 0.0149188 0.000712616 0.0026792 420.489 
296 1 0.0169126 0.000567618 0.00261911 415.98 
1125 1 0.0179476 -0.000535511 0.00398153 444.756 
229 1 0.0189022 0.000404401 0.0024965 412.289 
1121 1 0.0207436 0.000143193 0.00323189 438.339 
1269 1 0.0233602 0.000450973 0.00361969 491.405 
182 1 0.0248598 -0.000777839 0.00272881 377.59 
438 1 0.0259157 0.000919027 0.00280466 459.24 
1194 1 0.0286065 0.000232978 0.00237905 417.459 
896 1 0.0318096 -0.000830484 0.00406577 482.444 
1030 1 0.0305119 0.000242498 0.00298658 423.555 
334 1 0.033172 -0.000725086 0.00260031 325.683 
19 1 0.0356439 -0.00022773 0.00234772 413.882 
65 1 0.0377027 0.000305464 0.00232351 391.37 
1120 1 0.0390534 -0.000489579 0.00382456 454.131 
1079 1 0.0395763 0.00096548 0.00255594 389.013 
1268 1 0.0407291 -0.00066785 0.0026123 384.024 
267 1 0.0425149 0.000767667 0.00266122 374.1 
307 1 0.0436758 2.84904e-05 0.00411238 475.236 
640 1 0.0445885 -0.000664407 0.00247324 401.533 
1235 1 0.0459945 0.00043435 0.00337651 383.008 
559 1 0.0474154 -0.000541394 0.0023621 333.296 
70 1 0.0493083 -0.000516063 0.00336394 401.538 
777 1 0.000999995 0.00110825 0.00381703 324.501 
471 1 0.000999996 0.00219067 0.00213525 317.667 
1043 1 0.00259936 0.0010612 0.00261711 344.228 
1165 1 0.0043985 0.00192522 0.00248846 364.296 
1342 1 0.00615918 0.00122393 0.00312734 384.545 
948 1 0.00824989 0.00209418 0.00238418 355.598 
73 1 0.00954494 0.00198347 0.0040064 425.548 
505 1 0.0109079 0.00187772 0.00253671 348.76 
921 1 0.0128894 0.00162969 0.00264707 353.638 
698 1 0.0148031 0.00263621 0.00214408 392.324 
542 1 0.0161275 0.00214771 0.00356089 400.799 
202 1 0.0179548 0.00149021 0.00405531 476.527 
1312 1 0.0198177 0.00190183 0.00345535 460.334 
1100 1 0.0218928 0.00199069 0.0026682 433.799 
902 1 0.024654 0.0020511 0.00386609 477.751 
715 1 0.0275718 0.00203697 0.00271739 452.338 
209 1 0.0292263 0.00157551 0.00374179 479.218 
68 1 0.030945 0.00242399 0.00317064 418.101 
189 1 0.0323332 0.0010903 0.00262827 369.712 
122 1 0.0331342 0.00221269 0.00408336 422.941 
1112 1 0.0343195 0.0011875 0.00284081 384.504 
1259 1 0.0371473 0.00244187 0.00221728 409.677 
570 1 0.0366618 0.0011466 0.00380976 469.5 
1070 1 0.0392343 0.0028996 0.00293307 361.499 