ITEM: TIMESTEP
18100000
ITEM: NUMBER OF ATOMS
5000
ITEM: BOX BOUNDS mm mm mm
0 0.1
-0.015 0.015
0 0.3
ITEM: ATOMS id type x y z f_Temp[0] 
977 1 0.00102825 -0.014 0.000999993 301.637 
581 1 0.00280537 -0.013082 0.000999998 300 
980 1 0.00536401 -0.0139934 0.000999992 303.779 
1252 1 0.00736681 -0.0139976 0.000999998 300 
648 1 0.00943464 -0.014 0.000999991 306.617 
1049 1 0.0114353 -0.0139953 0.000999998 300 
585 1 0.0133901 -0.013565 0.000999998 300 
453 1 0.0153494 -0.0139698 0.000999997 301.853 
812 1 0.0173493 -0.0139998 0.000999993 308.591 
1111 1 0.0195007 -0.0134438 0.000999984 308.837 
713 1 0.021422 -0.014 0.000999994 305.905 
1065 1 0.0234048 -0.014 0.00126756 303.319 
82 1 0.0265155 -0.0139931 0.000999994 310.163 
383 1 0.0285156 -0.014 0.000999992 308.155 
930 1 0.030521 -0.014 0.000999997 305.575 
936 1 0.0322405 -0.014 0.00202133 310.475 
1185 1 0.0365621 -0.014 0.000999997 302.745 
961 1 0.0387276 -0.014 0.00158109 310.909 
397 1 0.0415067 -0.014 0.000999998 306.848 
434 1 0.0453634 -0.0139995 0.000999989 304.833 
845 1 0.0473634 -0.013996 0.000999993 302.321 
69 1 0.0493634 -0.014 0.000999998 300 
775 1 0.00100002 -0.0113754 0.000999998 300 
100 1 0.0029795 -0.0110896 0.000999992 305.566 
914 1 0.00557519 -0.0112015 0.00100005 308.995 
80 1 0.00757517 -0.0111953 0.000999991 312.542 
451 1 0.00998402 -0.0120769 0.000999996 314.358 
796 1 0.00840292 -0.0126653 0.00207425 307.168 
693 1 0.0116631 -0.012314 0.00206038 324.546 
1317 1 0.0131863 -0.0115688 0.000999987 320.106 
915 1 0.0160944 -0.0121103 0.000999994 311.345 
410 1 0.0190455 -0.011496 0.000999996 310.719 
830 1 0.0224371 -0.0122702 0.000999998 300.721 
320 1 0.0247898 -0.0125822 0.000999992 312.199 
112 1 0.0274126 -0.0122056 0.000999996 315.467 
75 1 0.0305709 -0.0120006 0.000999993 314.271 
44 1 0.0325472 -0.012308 0.000999993 309.549 
903 1 0.0346614 -0.0124727 0.000999987 318.725 
501 1 0.0399655 -0.0125406 0.000999994 316.072 
606 1 0.0381813 -0.0121244 0.00200969 330.248 
895 1 0.0424953 -0.0112468 0.000999991 320.037 
98 1 0.0440827 -0.0124633 0.000999998 308.388 
591 1 0.0463617 -0.01219 0.000999998 300 
260 1 0.0483399 -0.0113954 0.000999988 316.048 
341 1 0.00236835 -0.00912792 0.000999989 307.393 
781 1 0.00434315 -0.00962605 0.00099999 312.252 
163 1 0.00630249 -0.00922482 0.000999992 316.364 
180 1 0.00969329 -0.0104144 0.00207298 342.958 
657 1 0.0113778 -0.0106424 0.000999994 315.074 
479 1 0.0130888 -0.00957115 0.00099999 324.998 
1334 1 0.0156328 -0.00933789 0.000999989 332.051 
236 1 0.0173021 -0.0105161 0.00100003 326.383 
463 1 0.0189969 -0.0094543 0.000999987 330.542 
1058 1 0.020961 -0.0109208 0.000999997 308.988 
214 1 0.021988 -0.00920459 0.000999991 330.854 
48 1 0.0236592 -0.010687 0.000999996 320.768 
1001 1 0.0256579 -0.0107646 0.000999989 318.399 
157 1 0.0275721 -0.0101849 0.00099999 335.202 
154 1 0.0295703 -0.010269 0.000999998 332.752 
849 1 0.0316899 -0.0101269 0.000999998 304.64 
986 1 0.0337356 -0.0106994 0.000999992 324.671 
352 1 0.0353603 -0.00937906 0.000999998 331.471 
391 1 0.037078 -0.0107965 0.00099999 329.056 
828 1 0.0380495 -0.00904828 0.000999991 341.616 
1302 1 0.0391669 -0.010707 0.000999988 327.073 
1153 1 0.0410033 -0.00991491 0.000999992 332.309 
1029 1 0.0435086 -0.00935559 0.000999995 325.984 
734 1 0.0450013 -0.0106867 0.000999997 311.82 
168 1 0.0467898 -0.0104128 0.001852 324.943 
673 1 0.0479253 -0.00900397 0.000999991 325.073 
230 1 0.00208414 -0.00710001 0.000999993 315.764 
962 1 0.00400567 -0.00765473 0.000999989 322.219 
829 1 0.00807393 -0.0082964 0.000999989 329.688 
409 1 0.0100683 -0.00814704 0.00100015 326.298 
524 1 0.0120481 -0.00786324 0.000999994 322.229 
1221 1 0.0140493 -0.00781585 0.000999998 304.531 
1092 1 0.0173393 -0.0086903 0.00181755 355.15 
461 1 0.016624 -0.00701102 0.000999992 329.656 
1062 1 0.0197951 -0.00762048 0.000999986 350.658 
790 1 0.0215614 -0.00748521 0.00192831 378.313 
200 1 0.0233297 -0.00737885 0.000999993 350.341 
602 1 0.0247258 -0.00899514 0.000999997 317.977 
546 1 0.0254076 -0.0074302 0.00204216 325.646 
1240 1 0.0269157 -0.00822994 0.000999998 309.414 
247 1 0.0292594 -0.00829331 0.00099999 347.149 
973 1 0.0315646 -0.00811889 0.00099999 334.43 
1319 1 0.0334732 -0.00871669 0.000999992 334.681 
947 1 0.0365133 -0.00779137 0.00138712 315.988 
238 1 0.0398083 -0.00744564 0.000999998 323.948 
162 1 0.0418495 -0.00748749 0.000999997 314.391 
367 1 0.0444121 -0.00769988 0.0016651 325.962 
1274 1 0.0459344 -0.00881346 0.000999986 338.625 
1074 1 0.0498513 -0.00837764 0.000999998 300 
28 1 0.0010002 -0.00541922 0.000999994 309.097 
956 1 0.00299494 -0.00525846 0.000999998 300 
134 1 0.00500411 -0.00536152 0.000999994 329.81 
825 1 0.00684751 -0.00671657 0.000999995 328.119 
976 1 0.00894151 -0.00649438 0.000999994 340.548 
169 1 0.0109715 -0.00601028 0.000999993 339.077 
556 1 0.0129962 -0.00610228 0.000999995 340.417 
421 1 0.0149261 -0.00609382 0.001525 345.431 
1217 1 0.0184323 -0.00615665 0.000999998 334.225 
1325 1 0.0210603 -0.0057367 0.000999998 300 
496 1 0.0230199 -0.00528279 0.000999996 354.879 
639 1 0.024956 -0.005784 0.00099999 350.72 
1151 1 0.0269057 -0.0062297 0.000999984 350.765 
443 1 0.028981 -0.00545298 0.000999998 300 
1231 1 0.0310307 -0.0054522 0.000999998 300 
146 1 0.0303193 -0.00698151 0.00207498 374.323 
1290 1 0.0330366 -0.00676492 0.000999997 324.456 
1075 1 0.0353259 -0.00621403 0.000999995 324.889 
618 1 0.038025 -0.00654034 0.000999998 306.806 
83 1 0.0399098 -0.00544822 0.000999985 346.739 
974 1 0.0424605 -0.00544572 0.000999991 343.297 
1289 1 0.0449382 -0.00588859 0.000999992 334.272 
772 1 0.0466402 -0.00609637 0.0020296 358.88 
530 1 0.0482999 -0.00652692 0.000999994 327.098 
283 1 0.00371067 -0.00338745 0.000999998 300 
750 1 0.00569463 -0.00311858 0.000999998 300.005 
234 1 0.00689912 -0.00471724 0.000999994 340.469 
1025 1 0.00808669 -0.00310787 0.000999998 300 
139 1 0.00957687 -0.00451694 0.000999998 300 
791 1 0.0119528 -0.0041857 0.000999985 354.833 
402 1 0.0153626 -0.004214 0.000999994 340.465 
1087 1 0.017357 -0.00447035 0.000999991 349.286 
519 1 0.0193899 -0.00431182 0.000999993 354.93 
275 1 0.0216938 -0.00378558 0.000999994 340.262 
142 1 0.0249492 -0.00393316 0.00175782 370.436 
90 1 0.0267754 -0.00423396 0.000999996 343.164 
492 1 0.032699 -0.00434362 0.000999993 332.847 
749 1 0.0350091 -0.00423928 0.000999994 336.894 
1187 1 0.0369358 -0.00484893 0.000999997 317.889 
175 1 0.0402006 -0.00358298 0.00166048 360.785 
1050 1 0.0420853 -0.00347573 0.000999995 325.166 
846 1 0.0439728 -0.00413701 0.000999988 334.942 
424 1 0.0456873 -0.00431841 0.00201368 340.691 
1243 1 0.0474114 -0.00430605 0.000999998 323.739 
3721 1 0.0493439 -0.00482097 0.000999988 321.151 
77 1 0.00106428 -0.00207523 0.000999998 300 
37 1 0.00269634 -0.00135299 0.00200246 339.166 
1108 1 0.00442621 -0.00130241 0.000999983 337.54 
385 1 0.0074663 -0.0011745 0.000999988 343.926 
89 1 0.0100508 -0.00255551 0.000999998 300 
318 1 0.0118586 -0.00167902 0.000999998 326.044 
32 1 0.0138228 -0.00205531 0.000999998 322.984 
964 1 0.0158217 -0.00212183 0.000999998 317.115 
1180 1 0.0177825 -0.00251614 0.000999993 336.406 
885 1 0.0201852 -0.00247261 0.000999997 343.16 
264 1 0.0220832 -0.00158202 0.000999986 365.806 
258 1 0.0241116 -0.00228266 0.001 374.64 
291 1 0.0258098 -0.00110755 0.000999998 328.838 
1052 1 0.0282802 -0.00291658 0.000999992 362.736 
486 1 0.0304223 -0.00274938 0.000999993 347.058 
401 1 0.0328101 -0.00186878 0.000999996 323.214 
91 1 0.0348112 -0.00186302 0.00099999 337.692 
1248 1 0.0364864 -0.00291987 0.00127711 326.034 
1196 1 0.0384654 -0.00283657 0.000999995 323.085 
351 1 0.0409167 -0.00183629 0.000999995 331.522 
1003 1 0.0429073 -0.00158973 0.000999997 322.898 
545 1 0.0452833 -0.00262575 0.000999997 327.199 
31 1 0.0472197 -0.00212533 0.000999991 320.289 
1027 1 0.0491105 -0.00283465 0.000999996 306.97 
620 1 0.00150677 0.000624044 0.000999984 318.283 
817 1 0.00370983 0.000569607 0.000999998 300 
127 1 0.00591125 -0.000406584 0.00199601 371.875 
306 1 0.00756563 0.000823028 0.000999994 324.173 
167 1 0.00960301 -0.000600847 0.000999992 346.378 
721 1 0.0132144 -0.000384327 0.00191523 387.451 
33 1 0.0157866 -0.000111473 0.000999998 300 
522 1 0.0178035 -0.000349768 0.000999998 300 
1330 1 0.0201726 -0.000472061 0.000999998 300 
624 1 0.0239822 -0.000286865 0.000999988 360.071 
799 1 0.0222849 0.000162791 0.00195755 394.079 
644 1 0.0278053 -0.000973797 0.000999988 369.209 
181 1 0.0267602 0.000746203 0.000999994 362.096 
289 1 0.0300684 -0.000444246 0.000999989 349.616 
899 1 0.0320249 -2.93762e-05 0.000999997 319.899 
184 1 0.0341146 1.68896e-05 0.000999998 303.663 
1191 1 0.0369446 -0.000988228 0.000999998 309.452 
625 1 0.0395863 -0.000291085 0.000999998 315.791 
250 1 0.0417007 7.81935e-06 0.000999996 327.568 
1247 1 0.0440456 0.000574403 0.000999991 332.782 
518 1 0.045939 -0.000588995 0.000999992 335.279 
198 1 0.0476838 0.000898631 0.000999998 300 
527 1 0.0488465 -0.000852146 0.000999995 310.769 
904 1 0.0494914 0.00083641 0.00185608 331.633 
305 1 0.00264916 0.00226565 0.00100002 323.655 
408 1 0.00557638 0.00129512 0.000999993 342.113 
1037 1 0.00643218 0.00282586 0.00196146 361.998 
1054 1 0.00968458 0.00225442 0.000999996 322.082 
310 1 0.011896 0.0010516 0.000999998 308.201 
364 1 0.0129022 0.00293552 0.000999998 314.193 
392 1 0.0139525 0.00123354 0.000999991 344.587 
430 1 0.0169059 0.00174167 0.000999993 346.707 
723 1 0.018996 0.00172789 0.000999992 341.737 
279 1 0.0209923 0.00135248 0.000999998 300 
1099 1 0.0248586 0.00295496 0.000999993 355.423 
1044 1 0.0241312 0.00141222 0.00204443 408.545 
1226 1 0.0268526 0.0027672 0.000999989 374.144 
474 1 0.0285332 0.00167963 0.000999992 349.553 
1175 1 0.0304799 0.00146998 0.0014079 361.327 
280 1 0.033244 0.00181831 0.000999998 309.963 
476 1 0.0350733 0.0024588 0.0014934 340.543 
735 1 0.0363974 0.00104339 0.000999985 354.29 
311 1 0.0384834 0.00158561 0.000999987 351.799 
562 1 0.0405308 0.00178272 0.000999989 339.891 
197 1 0.0425283 0.0018813 0.000999995 323.234 
615 1 0.0443907 0.00261031 0.000999986 334.884 
568 1 0.0458138 0.00132471 0.00156747 357.843 
1197 1 0.0497082 0.00263088 0.000999994 329.478 
366 1 0.00100063 0.00383724 0.000999997 305.574 
920 1 0.0043839 0.00326097 0.00099999 325.197 
1036 1 0.00644525 0.00457953 0.000999989 325.397 
314 1 0.00844694 0.00420342 0.000999998 300 
1224 1 0.0104826 0.00408961 0.000999992 333.659 
1124 1 0.0123036 0.0049164 0.000999992 340.344 
1286 1 0.0152051 0.00422662 0.000999983 350.672 
972 1 0.0186014 0.00369399 0.000999996 325.411 
493 1 0.0202753 0.0030119 0.00185588 389.797 
939 1 0.02075 0.00475605 0.000999988 361.911 
923 1 0.0220823 0.00307749 0.000999993 351.867 
241 1 0.0235323 0.00445514 0.00099999 363.43 
322 1 0.0254857 0.00479463 0.00147149 370.228 
485 1 0.0274261 0.00468323 0.000999995 349.168 
814 1 0.0294225 0.00456453 0.000999989 355.197 
1229 1 0.031651 0.00303909 0.000999991 346.681 
879 1 0.032932 0.00472634 0.000999998 300 
1019 1 0.0354244 0.00436559 0.000999992 340.195 
26 1 0.0374497 0.00408386 0.000999998 300 
946 1 0.0393304 0.00340354 0.000999998 310.948 
1314 1 0.041438 0.0035651 0.000999997 325.854 
300 1 0.0429164 0.00497018 0.000999991 331.911 
757 1 0.0450352 0.00455742 0.000999996 322.362 
121 1 0.0464429 0.00313648 0.000999998 300 
2899 1 0.0491937 0.0045982 0.000999981 337.706 
235 1 0.0481355 0.00327053 0.00205706 363.801 
852 1 0.00147344 0.00578054 0.000999994 303.739 
143 1 0.00359123 0.00509717 0.000999997 318.617 
712 1 0.00611097 0.00655139 0.000999995 316.663 
857 1 0.00765647 0.00583318 0.0020467 333.223 
156 1 0.0101028 0.00606719 0.000999991 330.699 
733 1 0.0125017 0.00690655 0.000999988 338.324 
761 1 0.0142906 0.00601068 0.000999998 300 
1306 1 0.0170989 0.00501409 0.000999991 335.783 
1285 1 0.0165014 0.00696649 0.000999998 307.159 
237 1 0.0189814 0.0056897 0.000999997 331.752 
621 1 0.0222928 0.00602882 0.00099999 348.067 
1134 1 0.0242725 0.00631312 0.000999989 352.234 
1154 1 0.028986 0.0067722 0.000999991 353.221 
332 1 0.0310772 0.00569306 0.000999998 300 
404 1 0.0326452 0.00696578 0.000999994 334.382 
1299 1 0.0344553 0.0061151 0.000999994 332.439 
1088 1 0.0366774 0.00592881 0.000999988 363.757 
54 1 0.0390828 0.00538836 0.000999994 330.415 
176 1 0.0410339 0.00582837 0.000999992 325.714 
544 1 0.0455167 0.00651355 0.000999998 300 
469 1 0.0472716 0.00515104 0.000999995 316.835 
14 1 0.048698 0.00655308 0.000999996 321.172 
741 1 0.000999996 0.00772368 0.00100003 303.273 
187 1 0.00278473 0.00862649 0.000999991 306.52 
540 1 0.00401709 0.00705129 0.000999987 313.018 
193 1 0.00477651 0.00895878 0.000999998 300 
253 1 0.0068207 0.00842122 0.000999996 312.033 
959 1 0.00850773 0.00730957 0.000999992 319.55 
328 1 0.0114072 0.00885151 0.000999998 300 
718 1 0.0132987 0.00844915 0.0019926 339.411 
978 1 0.0151909 0.00848408 0.000999991 332.838 
488 1 0.0171399 0.00893312 0.000999991 328.346 
847 1 0.0186891 0.00766823 0.000999992 334.371 
473 1 0.0206945 0.00740133 0.000999998 300 
854 1 0.0226507 0.00799697 0.000999991 352.963 
207 1 0.0263751 0.0073962 0.000999998 300.229 
513 1 0.0293352 0.00896057 0.00151575 329.26 
651 1 0.0307733 0.00766986 0.000999989 336.699 
1298 1 0.0326488 0.00875108 0.00190147 328.115 
1244 1 0.0353883 0.00770327 0.00177925 365.167 
611 1 0.0372176 0.00791835 0.000999986 337.634 
730 1 0.039359 0.00754782 0.000999997 324.911 
835 1 0.0417267 0.00744182 0.00195747 367.302 
110 1 0.0436805 0.00766014 0.000999996 322.694 
428 1 0.0469194 0.00795518 0.000999997 303.305 
174 1 0.0497579 0.00825521 0.000999987 329.729 
205 1 0.00100021 0.00991911 0.000999985 302.142 
177 1 0.00272024 0.0104073 0.001908 304.094 
674 1 0.00638342 0.0103728 0.000999989 308.849 
79 1 0.00942032 0.00908922 0.000999998 315.483 
1320 1 0.0104938 0.0103921 0.00207241 324.352 
779 1 0.012119 0.0108494 0.00100017 317.31 
292 1 0.0139551 0.0100566 0.000999991 323.555 
11 1 0.015904 0.0105056 0.00099999 322.346 
50 1 0.0188973 0.00950435 0.00176508 320.574 
1042 1 0.0207436 0.00942881 0.000999998 305.436 
694 1 0.0226224 0.0101149 0.000999989 335.59 
147 1 0.0240051 0.00907428 0.00200252 370.124 
983 1 0.0256274 0.00967679 0.000999989 332.19 
798 1 0.0278229 0.0101635 0.000999996 312.17 
966 1 0.0311269 0.00968438 0.000999995 315.495 
1186 1 0.033815 0.0102344 0.000999995 320.808 
1091 1 0.035782 0.00950263 0.000999993 333.725 
93 1 0.0382867 0.00960858 0.000999998 325.781 
1160 1 0.0399631 0.0106994 0.000999988 311.549 
575 1 0.0411762 0.00910919 0.00099999 326.723 
985 1 0.04312 0.00957997 0.000999996 311.952 
359 1 0.0453271 0.00941899 0.000999995 316.995 
969 1 0.0472618 0.00992566 0.000999998 305.955 
78 1 0.0492059 0.0103951 0.000999992 305.693 
363 1 0.000999994 0.0125472 0.000999995 300.483 
811 1 0.00296408 0.0122886 0.00127469 301.79 
743 1 0.00449491 0.0110312 0.000999993 303.125 
1251 1 0.00600936 0.0123375 0.000999995 302.716 
72 1 0.009055 0.0112752 0.000999994 308.564 
1313 1 0.0110293 0.0125265 0.00099999 307.942 
654 1 0.0139151 0.0120596 0.000999989 316.145 
271 1 0.0178306 0.0110469 0.000999998 300 
15 1 0.0191506 0.0123316 0.00178965 314.982 
215 1 0.0208644 0.0116686 0.00099999 317.133 
420 1 0.0226323 0.0118976 0.00190669 322.506 
449 1 0.0244554 0.012149 0.000999998 307.077 
39 1 0.0263672 0.0115349 0.000999992 314.452 
188 1 0.0295985 0.0111181 0.000999991 321.273 
425 1 0.028129 0.0124814 0.000999992 306.587 
1095 1 0.0312193 0.01229 0.000999998 300.001 
1227 1 0.033219 0.0122468 0.000999995 310.22 
119 1 0.0353449 0.0122913 0.000999998 300 
650 1 0.0369685 0.0111127 0.000999989 320.392 
1138 1 0.0386186 0.0122428 0.000999992 312.645 
979 1 0.0405124 0.0124274 0.00184388 318.383 
316 1 0.0424182 0.0117034 0.000999998 302.944 
1297 1 0.0443447 0.0111611 0.00099999 313.94 
1206 1 0.046545 0.0118446 0.000999993 308.762 
380 1 0.0484365 0.0121497 0.00157368 303.059 
347 1 0.00209295 0.014 0.00183359 300.461 
309 1 0.00396196 0.014 0.000999998 300.692 
1130 1 0.00566062 0.014 0.00205571 302.019 
807 1 0.00735927 0.014 0.000999991 301.569 
114 1 0.00931258 0.0135525 0.000999993 302.977 
240 1 0.0123816 0.014 0.000999997 303.785 
672 1 0.0144052 0.014 0.000999998 302.709 
729 1 0.0161846 0.014 0.00191321 310.462 
758 1 0.0179409 0.0137147 0.000999996 306.532 
1038 1 0.0199206 0.014 0.000999993 305.768 
81 1 0.0217812 0.0139926 0.00173331 310.94 
676 1 0.0236419 0.0139761 0.000999994 305.577 
534 1 0.0264777 0.0137769 0.000999998 300 
526 1 0.0299137 0.014 0.000999997 301.703 
101 1 0.0322566 0.014 0.000999994 305.671 
1304 1 0.0342566 0.014 0.00099999 307.396 
1171 1 0.0370675 0.0139101 0.000999998 300 
442 1 0.0396097 0.014 0.000999989 308.794 
348 1 0.0423191 0.0137127 0.000999998 300 
626 1 0.0443208 0.014 0.000999994 302.433 
935 1 0.0466512 0.013948 0.000999998 300 
766 1 0.0489339 0.014 0.000999995 301.761 
728 1 0.00392052 -0.014 0.00238429 304.68 
1249 1 0.00256444 -0.0132265 0.00363435 311.553 
929 1 0.00450257 -0.0131416 0.00412055 320.081 
1137 1 0.00634469 -0.014 0.00274303 309.71 
1097 1 0.0078871 -0.0133954 0.0038635 328.602 
598 1 0.0095839 -0.014 0.0029944 318.237 
1056 1 0.0115791 -0.014 0.0031329 319.869 
747 1 0.0135702 -0.014 0.00294461 311.188 
1337 1 0.0162623 -0.0135725 0.00273454 306.321 
789 1 0.0184969 -0.014 0.00263796 321.097 
894 1 0.0203583 -0.014 0.00336963 321.919 
507 1 0.0220847 -0.0132262 0.00272104 319.276 
170 1 0.0250702 -0.014 0.00238244 312.783 
993 1 0.0240141 -0.0139722 0.00408059 335.649 
1048 1 0.0275175 -0.0134232 0.00263438 323.725 
1267 1 0.0262053 -0.014 0.00402915 309.433 
43 1 0.0295 -0.014 0.00274091 315.194 
1169 1 0.0312288 -0.014 0.00374657 332.654 
1008 1 0.0331407 -0.0134146 0.0037886 322.001 
1168 1 0.0342309 -0.014 0.00221734 312.697 
288 1 0.0350354 -0.014 0.00404837 321.994 
158 1 0.0375146 -0.014 0.00317125 305.118 
47 1 0.0406544 -0.0133617 0.00269294 326.419 
274 1 0.0425983 -0.014 0.00386091 321.674 
652 1 0.0441287 -0.014 0.00257328 311.871 
689 1 0.0463276 -0.014 0.00275222 307.16 
1184 1 0.0483371 -0.014 0.00274697 306.682 
1026 1 0.000999991 -0.0126891 0.00251021 304.946 
261 1 0.000999995 -0.011326 0.00397369 309.741 
1343 1 0.00301409 -0.0113076 0.00397475 324.128 
87 1 0.00423913 -0.0120312 0.0022356 305.438 
355 1 0.00504244 -0.0112267 0.00391614 334.154 
1208 1 0.00656471 -0.0120234 0.00253146 307.665 
22 1 0.00843274 -0.011079 0.00371936 345.623 
378 1 0.0101037 -0.0120919 0.00329275 328.111 
1220 1 0.0128444 -0.012285 0.00367402 324.023 
4 1 0.0145348 -0.0124065 0.00221646 313.411 
336 1 0.015519 -0.0118383 0.00386221 319.344 
622 1 0.0176585 -0.0122282 0.00224094 311.863 
1077 1 0.0174136 -0.0112732 0.00416425 345.438 
736 1 0.0189909 -0.012447 0.00379728 366.042 
681 1 0.0203697 -0.0122626 0.00236006 308.7 
859 1 0.022665 -0.0115618 0.00410205 357.978 
806 1 0.0239103 -0.0124121 0.00278814 336.78 
1152 1 0.0260548 -0.0120702 0.00246214 335.194 
999 1 0.0279366 -0.0119296 0.00389669 339.553 
1316 1 0.0289735 -0.011821 0.0021899 331.347 
797 1 0.029953 -0.0124734 0.00395094 336.336 
1264 1 0.0315301 -0.0122716 0.00273395 310.324 
20 1 0.0336445 -0.0118753 0.00261523 346.217 
1336 1 0.0350723 -0.0118548 0.00401562 335.494 
1126 1 0.0354465 -0.0110244 0.00213404 334.214 
233 1 0.0359508 -0.0129117 0.00256269 311.277 
450 1 0.0369507 -0.0113847 0.00340195 343.371 
160 1 0.0392319 -0.0123737 0.00369314 358.892 
724 1 0.0409925 -0.0114286 0.00230715 341.371 
876 1 0.0419024 -0.0120667 0.00396995 354.526 
872 1 0.0425493 -0.0128203 0.00223337 308.907 
704 1 0.0449215 -0.0120423 0.00276611 315.111 
945 1 0.0469145 -0.0120959 0.00292509 323.578 
221 1 0.0489219 -0.0120878 0.00278378 325.638 
1245 1 0.000999993 -0.00928449 0.00395345 315.553 
744 1 0.00199872 -0.0103191 0.00256345 314.172 
635 1 0.00390569 -0.00984746 0.00293895 328.092 
136 1 0.00590224 -0.00974057 0.00289044 335.766 
418 1 0.00782929 -0.00974667 0.00235529 337.235 
1057 1 0.0112144 -0.00913699 0.00230648 336.657 
259 1 0.0102857 -0.010154 0.00396539 377.709 
1318 1 0.0125372 -0.0106075 0.00262928 353.521 
725 1 0.0121185 -0.00937428 0.00414712 411.27 
1205 1 0.0144017 -0.00990101 0.00247217 364.069 
422 1 0.0163222 -0.0103914 0.00273907 337.93 
924 1 0.0183927 -0.0103733 0.00267041 351.498 
395 1 0.0200087 -0.0107212 0.00379621 356.278 
1195 1 0.0205045 -0.00947314 0.00231414 334.901 
500 1 0.0225748 -0.0102262 0.0026161 346.661 
213 1 0.0246572 -0.0105577 0.00272838 337.086 
909 1 0.0263344 -0.0095128 0.00242 364.431 
740 1 0.0265318 -0.0105259 0.00413308 382.341 
521 1 0.0284821 -0.00929895 0.00254496 380.362 
997 1 0.0297075 -0.0105331 0.00353251 371.328 
445 1 0.0304806 -0.00911342 0.00235493 365.764 
1261 1 0.0322714 -0.0104207 0.00289093 318.309 
529 1 0.0340991 -0.00964259 0.00265859 357.933 
277 1 0.0355513 -0.00991304 0.00402491 383.702 
124 1 0.0367214 -0.00947922 0.002462 374.632 
960 1 0.0385169 -0.0102744 0.00284128 362.821 
510 1 0.0401572 -0.0106169 0.00393302 405.52 
533 1 0.0434256 -0.0107171 0.00268929 345.275 
552 1 0.044975 -0.00945352 0.0026339 382.161 
697 1 0.0458235 -0.0106606 0.00398403 394.376 
440 1 0.0475928 -0.00981798 0.00358448 365.276 
1021 1 0.0490805 -0.0100354 0.00226562 344.713 
95 1 0.0495155 -0.0105984 0.00413479 372.735 
564 1 0.00099999 -0.00828587 0.00219099 313.009 
1178 1 0.00294431 -0.00812116 0.0026297 318.549 
1005 1 0.00493772 -0.00799531 0.00273643 351.317 
284 1 0.00642498 -0.00807971 0.00407095 373.956 
27 1 0.00807073 -0.00718883 0.00266529 376.364 
344 1 0.00938651 -0.00866083 0.00298457 366.41 
455 1 0.0105623 -0.00708018 0.00263943 382.329 
636 1 0.0124312 -0.00770239 0.00298568 377.232 
1006 1 0.0139625 -0.00858986 0.00391714 412.946 
457 1 0.0154895 -0.00790228 0.00238508 318.462 
719 1 0.0174886 -0.00898444 0.00379015 397.761 
970 1 0.0173748 -0.00710733 0.00303941 373.858 
179 1 0.019032 -0.00819104 0.00275844 383.355 
138 1 0.0218439 -0.00861733 0.00355266 398.608 
818 1 0.0203462 -0.00738063 0.00402971 443.566 
246 1 0.0236322 -0.00852863 0.00260825 348.111 
52 1 0.0251761 -0.00874884 0.00386041 397.235 
788 1 0.0270982 -0.00816529 0.00368523 401.484 
988 1 0.028116 -0.00722336 0.00224411 387.778 
490 1 0.0294674 -0.00792801 0.00361716 417.921 
84 1 0.031579 -0.00882185 0.0040007 442.07 
574 1 0.0326897 -0.00787248 0.00263506 368.787 
1270 1 0.0346324 -0.00763772 0.00222151 362.027 
890 1 0.0361877 -0.00783246 0.00346367 427.261 
51 1 0.0380266 -0.00798128 0.00269142 409.24 
631 1 0.0399048 -0.00892272 0.00234495 336.02 
96 1 0.0393912 -0.00787195 0.00414942 486.089 
511 1 0.0410111 -0.00732224 0.00280826 355.731 
466 1 0.041122 -0.00887299 0.00410041 486.483 
1303 1 0.0421003 -0.00893786 0.00235721 383.245 
958 1 0.0436162 -0.00824038 0.00345969 429.166 
801 1 0.0466159 -0.00823817 0.00279014 386.336 
12 1 0.0485517 -0.00783185 0.00249456 357.023 
1322 1 0.00166231 -0.00652449 0.00286836 332.239 
1341 1 0.00396419 -0.00627271 0.00244508 342.574 
558 1 0.00510905 -0.00651309 0.00406821 394.751 
1255 1 0.00617585 -0.0056989 0.0025853 360.529 
56 1 0.00920399 -0.00554256 0.00273928 398.56 
1328 1 0.0124008 -0.00589791 0.00386145 463.42 
981 1 0.0141383 -0.00669754 0.00326137 388.897 
63 1 0.016488 -0.00538171 0.00255375 395.338 
942 1 0.0197866 -0.00626282 0.00246853 411.392 
1115 1 0.0187325 -0.00616465 0.0041654 477.124 
394 1 0.0204476 -0.00512481 0.00397452 414.072 
433 1 0.0221624 -0.00664013 0.00363846 459.493 
1004 1 0.0238057 -0.00623755 0.0025719 397.584 
957 1 0.0256907 -0.00562412 0.0028533 362.432 
436 1 0.0276169 -0.00518118 0.0025475 407.886 
769 1 0.0283152 -0.00634638 0.0040305 472.188 
141 1 0.0300155 -0.00540323 0.00326521 427.832 
59 1 0.0319484 -0.00601689 0.00271977 383.066 
104 1 0.0339034 -0.00541545 0.00219479 355.178 
489 1 0.0353605 -0.00612222 0.00408883 441.564 
1166 1 0.0366481 -0.00613693 0.00250276 325.939 
58 1 0.0378524 -0.00653306 0.00405974 454.977 
593 1 0.0392466 -0.00639765 0.00263055 381.399 
897 1 0.041185 -0.00533196 0.00253628 395.699 
1 1 0.0428685 -0.00661072 0.0025736 375.354 
759 1 0.0446992 -0.00576291 0.00298167 388.475 
396 1 0.0462771 -0.0066257 0.00392378 436.375 
1234 1 0.0482705 -0.00512445 0.00266 358.445 
3839 1 0.0498275 -0.00635211 0.00292208 386.883 
539 1 0.000999991 -0.00463755 0.00284091 321.479 
502 1 0.0028692 -0.00496099 0.00348449 339.877 
1090 1 0.00241806 -0.00326162 0.00253127 331.547 
666 1 0.00465322 -0.00440221 0.00271947 348.066 
102 1 0.00755571 -0.00396157 0.00273142 390.998 
263 1 0.0095279 -0.00357948 0.00294262 427.307 
659 1 0.0111076 -0.00492458 0.00267413 364.973 
61 1 0.0132155 -0.00474062 0.00244835 392.841 
701 1 0.014857 -0.00485586 0.003585 440.63 
968 1 0.0144952 -0.00320426 0.00249262 392.565 
949 1 0.0164875 -0.00336364 0.00242094 378.849 
815 1 0.0184075 -0.00482756 0.00266398 401.671 
941 1 0.0219151 -0.00493099 0.00262965 393.088 
793 1 0.0203805 -0.00364863 0.00260586 401.333 
371 1 0.0217992 -0.00348212 0.00400576 507.399 
437 1 0.0237219 -0.00436751 0.00327611 389.182 
232 1 0.0256883 -0.00374046 0.00360621 423.512 
1053 1 0.0274331 -0.0032043 0.00278871 381.009 
1113 1 0.0294168 -0.00367225 0.0024619 417.936 
239 1 0.0285386 -0.00436099 0.00412155 505.236 
125 1 0.0313661 -0.00411936 0.00247416 380.214 
503 1 0.0305202 -0.00320882 0.00406428 484.429 
685 1 0.0338027 -0.00315327 0.00216831 349.546 
1183 1 0.0329001 -0.00455259 0.00369441 376.047 
607 1 0.0355435 -0.00451931 0.00290681 402.465 
670 1 0.0344352 -0.0033252 0.00406679 487.061 
337 1 0.0372277 -0.00348272 0.00320522 409.9 
1129 1 0.0385362 -0.00458563 0.00217014 366.307 
731 1 0.0397943 -0.0039422 0.00358553 463.706 
571 1 0.0429846 -0.00447594 0.00270542 356.105 
971 1 0.0428698 -0.00304037 0.00409671 465.363 
708 1 0.0447234 -0.00389631 0.00371446 386.304 
886 1 0.0466457 -0.00466918 0.00373368 358.235 
1181 1 0.0478672 -0.0031672 0.00257964 356.258 
7 1 0.000999995 -0.00224926 0.00351349 335.386 
194 1 0.00444504 -0.00241389 0.00266259 372.389 
824 1 0.00663811 -0.002199 0.00250483 378.93 
850 1 0.00789364 -0.0024833 0.00403545 397.826 
520 1 0.00878403 -0.00181657 0.00236061 389.466 
1122 1 0.011365 -0.00295271 0.00246086 400.611 
1071 1 0.0110248 -0.00157098 0.0038662 456.314 
1326 1 0.0128951 -0.00189142 0.00319063 414.743 
592 1 0.0149515 -0.00128289 0.00280888 406.387 
251 1 0.0169801 -0.001426 0.00247444 371.645 
702 1 0.0161354 -0.00228746 0.00406953 367.953 
1149 1 0.0180125 -0.00280077 0.00358607 447.044 
379 1 0.0189674 -0.00158635 0.00231587 377.869 
1284 1 0.0210353 -0.00176092 0.00269408 425.446 
794 1 0.0227832 -0.00284188 0.00238658 413.406 
448 1 0.0225297 -0.0013417 0.0039554 480.199 
1114 1 0.0242126 -0.00239472 0.00371208 485.876 
1335 1 0.0270199 -0.00120829 0.00282432 465.377 
687 1 0.0291767 -0.00168212 0.00229324 412.981 
753 1 0.0287052 -0.00236798 0.00411184 511.463 
628 1 0.0312942 -0.00143576 0.00223057 349.68 
937 1 0.0323336 -0.00265285 0.00342984 423.327 
637 1 0.0355118 -0.00215918 0.00284971 402.657 
998 1 0.0373732 -0.001489 0.00314284 385.694 
128 1 0.0393168 -0.00208354 0.00264561 360.647 
871 1 0.0411969 -0.00260098 0.00308983 337.847 
992 1 0.0426257 -0.0012092 0.00294356 355.453 
587 1 0.0438385 -0.00269671 0.00238109 377.32 
710 1 0.0445866 -0.00189194 0.0040522 456.284 
512 1 0.0461727 -0.00207084 0.00270327 320.72 
21 1 0.0478069 -0.00170423 0.00394202 425.796 
1170 1 0.0495766 -0.00258666 0.00344025 386.943 
822 1 0.000999987 -0.000473589 0.00259319 324.921 
109 1 0.0024542 -0.000832872 0.00391839 370.922 
528 1 0.00578114 -0.000842966 0.00394346 443.93 
242 1 0.00411277 -0.000225061 0.00285187 350.263 
144 1 0.00763281 -0.000245222 0.00300108 386.736 
1192 1 0.00914761 -0.000927255 0.00411472 439.955 
419 1 0.00945075 0.000512878 0.0026542 388.37 
412 1 0.0112445 -0.000305026 0.0023172 333.256 
1076 1 0.0126516 8.4254e-06 0.00379379 444.965 
62 1 0.0149188 0.000712616 0.0026792 410.962 
296 1 0.0169126 0.000567618 0.00261911 406.638 
1125 1 0.0179476 -0.000535511 0.00398153 434.053 
229 1 0.0189022 0.000404401 0.0024965 403.394 
1121 1 0.0207436 0.000143193 0.00323189 428.221 
1269 1 0.0233602 0.000450973 0.00361969 485.219 
182 1 0.0248598 -0.000777839 0.00272881 368.693 
438 1 0.0259157 0.000919027 0.00280466 452.393 
1194 1 0.0286065 0.000232978 0.00237905 409.72 
896 1 0.0318096 -0.000830484 0.00406577 471.027 
1030 1 0.0305119 0.000242498 0.00298658 412.281 
334 1 0.033172 -0.000725086 0.00260031 318.384 
19 1 0.0356439 -0.00022773 0.00234772 402.006 
65 1 0.0377027 0.000305464 0.00232351 376.243 
1120 1 0.0390534 -0.000489579 0.00382456 438.131 
1079 1 0.0395763 0.00096548 0.00255594 373.536 
1268 1 0.0407291 -0.00066785 0.0026123 368.094 
267 1 0.0425149 0.000767667 0.00266122 356.95 
307 1 0.0436758 2.84904e-05 0.00411238 463.3 
640 1 0.0445885 -0.000664407 0.00247324 387.232 
1235 1 0.0459945 0.000434349 0.00337651 364.167 
559 1 0.0474154 -0.000541395 0.0023621 320.806 
70 1 0.0493083 -0.000516063 0.00336394 373.357 
777 1 0.000999995 0.00110825 0.00381703 323.332 
471 1 0.000999996 0.00219067 0.00213525 316.666 
1043 1 0.00259936 0.0010612 0.00261711 341.997 
1165 1 0.0043985 0.00192522 0.00248846 362.481 
1342 1 0.00615918 0.00122393 0.00312734 380.793 
948 1 0.00824989 0.00209418 0.00238418 349.941 
73 1 0.00954494 0.00198347 0.0040064 419.535 
505 1 0.0109079 0.00187772 0.00253671 341.391 
921 1 0.0128894 0.00162969 0.00264707 344.809 
698 1 0.0148031 0.00263621 0.00214408 385.242 
542 1 0.0161275 0.00214771 0.00356089 390.715 
202 1 0.0179548 0.00149021 0.00405531 469.037 
1312 1 0.0198177 0.00190183 0.00345535 452.756 
1100 1 0.0218928 0.00199069 0.0026682 426.53 
902 1 0.024654 0.0020511 0.00386609 472.278 
715 1 0.0275718 0.00203697 0.00271739 443.581 
209 1 0.0292263 0.00157551 0.00374179 469.044 
68 1 0.030945 0.00242399 0.00317064 404.718 
189 1 0.0323332 0.0010903 0.00262827 356.856 
122 1 0.0331342 0.00221269 0.00408336 405.32 
1112 1 0.0343195 0.0011875 0.00284081 369.62 
1259 1 0.0371473 0.00244187 0.00221728 398.147 
570 1 0.0366618 0.0011466 0.00380976 451.941 