ITEM: TIMESTEP
19700000
ITEM: NUMBER OF ATOMS
5000
ITEM: BOX BOUNDS mm mm mm
0 0.1
-0.015 0.015
0 0.3
ITEM: ATOMS id type x y z f_Temp[0] 
977 1 0.00102825 -0.014 0.000999993 301.822 
581 1 0.00280538 -0.013082 0.000999998 300 
980 1 0.00536401 -0.0139934 0.000999992 304.173 
1252 1 0.00736681 -0.0139976 0.000999998 300 
648 1 0.00943464 -0.014 0.000999991 307.151 
1049 1 0.0114353 -0.0139953 0.000999998 300 
585 1 0.0133901 -0.013565 0.000999998 300 
453 1 0.0153494 -0.0139698 0.000999997 302.174 
812 1 0.0173493 -0.0139998 0.000999993 309.046 
1111 1 0.0195007 -0.0134438 0.000999984 309.347 
713 1 0.021422 -0.014 0.000999994 306.573 
1065 1 0.0234048 -0.014 0.00126756 303.817 
82 1 0.0265155 -0.0139931 0.000999994 311.387 
383 1 0.0285156 -0.014 0.000999992 309.111 
930 1 0.030521 -0.014 0.000999997 306.356 
936 1 0.0322405 -0.014 0.00202133 311.846 
1185 1 0.0365621 -0.014 0.000999997 303.588 
961 1 0.0387276 -0.014 0.00158109 312.904 
397 1 0.0415067 -0.014 0.000999998 308.549 
434 1 0.0453634 -0.0139995 0.000999989 306.403 
845 1 0.0473634 -0.013996 0.000999993 303.356 
69 1 0.0493634 -0.014 0.000999998 300 
775 1 0.00100002 -0.0113754 0.000999998 300 
100 1 0.0029795 -0.0110896 0.000999992 306.078 
914 1 0.00557519 -0.0112015 0.00100005 309.983 
80 1 0.00757517 -0.0111953 0.000999991 313.578 
451 1 0.00998402 -0.0120769 0.000999996 315.642 
796 1 0.00840292 -0.0126653 0.00207425 308.122 
693 1 0.0116631 -0.012314 0.00206038 326.092 
1317 1 0.0131863 -0.0115688 0.000999987 321.146 
915 1 0.0160944 -0.0121103 0.000999994 312.452 
410 1 0.0190455 -0.011496 0.000999996 311.798 
830 1 0.0224371 -0.0122702 0.000999998 300.889 
320 1 0.0247898 -0.0125822 0.000999992 313.359 
112 1 0.0274126 -0.0122056 0.000999996 317.325 
75 1 0.0305709 -0.0120006 0.000999993 315.921 
44 1 0.0325472 -0.012308 0.000999993 310.826 
903 1 0.0346614 -0.0124727 0.000999987 320.966 
501 1 0.0399655 -0.0125406 0.000999994 318.517 
606 1 0.0381813 -0.0121244 0.00200969 334.313 
895 1 0.0424953 -0.0112468 0.000999991 323.601 
98 1 0.0440827 -0.0124633 0.000999998 311.053 
591 1 0.0463625 -0.0121894 0.000999998 300 
260 1 0.0483399 -0.0113954 0.000999988 320.316 
341 1 0.00236835 -0.00912792 0.000999989 307.889 
781 1 0.00434315 -0.00962605 0.00099999 313.086 
163 1 0.00630249 -0.00922482 0.000999992 317.388 
180 1 0.00969329 -0.0104144 0.00207298 345.814 
657 1 0.0113778 -0.0106424 0.000999994 316.402 
479 1 0.0130888 -0.00957115 0.00099999 326.005 
1334 1 0.0156328 -0.00933789 0.000999989 333.443 
236 1 0.0173021 -0.0105161 0.00100003 328.402 
463 1 0.0189969 -0.0094543 0.000999987 332.472 
1058 1 0.020961 -0.0109208 0.000999997 309.962 
214 1 0.021988 -0.00920459 0.000999991 332.764 
48 1 0.0236592 -0.010687 0.000999996 322.973 
1001 1 0.0256579 -0.0107646 0.000999989 320.059 
157 1 0.0275721 -0.0101849 0.00099999 337.896 
154 1 0.0295703 -0.010269 0.000999998 335.378 
849 1 0.0316899 -0.0101271 0.000999998 305.68 
986 1 0.0337356 -0.0106994 0.000999992 327.09 
352 1 0.0353603 -0.00937906 0.000999998 335.435 
391 1 0.037078 -0.0107965 0.00099999 332.539 
828 1 0.0380495 -0.00904828 0.000999991 345.469 
1302 1 0.0391669 -0.010707 0.000999988 330.202 
1153 1 0.0410033 -0.00991491 0.000999992 336.261 
1029 1 0.0435086 -0.00935559 0.000999995 330.082 
734 1 0.0450013 -0.0106867 0.000999997 315.287 
168 1 0.0467898 -0.0104128 0.001852 331.493 
673 1 0.0479253 -0.00900397 0.000999991 331.024 
230 1 0.00208414 -0.00710001 0.000999993 316.409 
962 1 0.00400567 -0.00765473 0.000999989 323.167 
829 1 0.00807393 -0.0082964 0.000999989 331.062 
409 1 0.0100683 -0.00814704 0.00100015 328.241 
524 1 0.0120481 -0.00786324 0.000999994 323.561 
1221 1 0.0140493 -0.00781584 0.000999998 305.215 
1092 1 0.0173393 -0.0086903 0.00181755 357.737 
461 1 0.016624 -0.00701102 0.000999992 331.54 
1062 1 0.0197951 -0.00762048 0.000999986 352.792 
790 1 0.0215614 -0.00748521 0.00192831 380.549 
200 1 0.0233297 -0.00737885 0.000999993 352.313 
602 1 0.0247258 -0.00899514 0.000999997 319.963 
546 1 0.0254076 -0.0074302 0.00204216 328.605 
1240 1 0.0269157 -0.00822994 0.000999998 310.824 
247 1 0.0292594 -0.00829331 0.00099999 350.367 
973 1 0.0315646 -0.00811889 0.00099999 337.828 
1319 1 0.0334732 -0.00871669 0.000999992 338.361 
947 1 0.0365133 -0.00779137 0.00138712 319.818 
238 1 0.0398083 -0.00744564 0.000999998 328.187 
162 1 0.0418495 -0.00748746 0.000999997 318.072 
367 1 0.0444121 -0.00769988 0.0016651 331.995 
1274 1 0.0459344 -0.00881346 0.000999986 344.478 
1074 1 0.0498517 -0.00837796 0.000999998 300 
28 1 0.0010002 -0.00541922 0.000999994 309.529 
956 1 0.00299502 -0.00525861 0.000999998 300 
134 1 0.00500411 -0.00536152 0.000999994 331.326 
825 1 0.00684751 -0.00671657 0.000999995 329.258 
976 1 0.00894151 -0.00649438 0.000999994 341.696 
169 1 0.0109715 -0.00601028 0.000999993 341.307 
556 1 0.0129962 -0.00610228 0.000999995 342.277 
421 1 0.0149261 -0.00609382 0.001525 348.036 
1217 1 0.0184323 -0.00615665 0.000999998 336.401 
1325 1 0.0210607 -0.0057373 0.000999998 300 
496 1 0.0230199 -0.00528279 0.000999996 357.672 
639 1 0.024956 -0.005784 0.00099999 353.54 
1151 1 0.0269057 -0.0062297 0.000999984 353.399 
443 1 0.0289796 -0.00544709 0.000999998 300 
1231 1 0.0310306 -0.00545217 0.000999998 300 
146 1 0.0303193 -0.00698151 0.00207498 380.685 
1290 1 0.0330366 -0.00676492 0.000999997 328.475 
1075 1 0.0353259 -0.00621403 0.000999995 328.362 
618 1 0.038025 -0.00654034 0.000999998 308.834 
83 1 0.0399098 -0.00544822 0.000999985 352.097 
974 1 0.0424605 -0.00544572 0.000999991 348.633 
1289 1 0.0449382 -0.00588859 0.000999992 340.141 
772 1 0.0466402 -0.00609637 0.0020296 367.776 
530 1 0.0482999 -0.00652692 0.000999994 333.388 
283 1 0.00371059 -0.00338743 0.000999998 300 
750 1 0.00569459 -0.00311855 0.000999998 300.004 
234 1 0.00689912 -0.00471724 0.000999994 342.002 
1025 1 0.00808681 -0.00310797 0.000999998 300 
139 1 0.00957641 -0.00451693 0.000999998 300 
791 1 0.0119528 -0.0041857 0.000999985 356.932 
402 1 0.0153626 -0.004214 0.000999994 342.91 
1087 1 0.017357 -0.00447035 0.000999991 352.22 
519 1 0.0193899 -0.00431182 0.000999993 358.065 
275 1 0.0216938 -0.00378558 0.000999994 342.6 
142 1 0.0249492 -0.00393316 0.00175782 375.393 
90 1 0.0267754 -0.00423396 0.000999996 346.393 
492 1 0.032699 -0.00434362 0.000999993 337.023 
749 1 0.0350091 -0.00423928 0.000999994 341.377 
1187 1 0.0369358 -0.00484893 0.000999997 321.678 
175 1 0.0402006 -0.00358298 0.00166048 367.561 
1050 1 0.0420853 -0.00347573 0.000999995 329.441 
846 1 0.0439728 -0.00413701 0.000999988 340.665 
424 1 0.0456873 -0.00431841 0.00201368 349.523 
1243 1 0.0474114 -0.00430605 0.000999998 330.554 
3721 1 0.0493439 -0.00482097 0.000999988 327.172 
77 1 0.00106475 -0.00207808 0.000999998 300 
37 1 0.00269634 -0.00135299 0.00200246 340.305 
1108 1 0.00442621 -0.00130241 0.000999983 338.618 
385 1 0.0074663 -0.0011745 0.000999988 345.313 
89 1 0.0100508 -0.0025556 0.000999998 300 
318 1 0.0118586 -0.00167902 0.000999998 328.145 
32 1 0.0138228 -0.00205531 0.000999998 325.025 
964 1 0.0158217 -0.00212183 0.000999998 319.491 
1180 1 0.0177825 -0.00251614 0.000999993 338.95 
885 1 0.0201852 -0.00247261 0.000999997 346.108 
264 1 0.0220832 -0.00158202 0.000999986 368.774 
258 1 0.0241116 -0.00228266 0.001 379.544 
291 1 0.0258098 -0.00110755 0.000999998 331.699 
1052 1 0.0282802 -0.00291658 0.000999992 366.367 
486 1 0.0304223 -0.00274938 0.000999993 350.523 
401 1 0.0328101 -0.00186878 0.000999996 326.789 
91 1 0.0348112 -0.00186302 0.00099999 341.401 
1248 1 0.0364864 -0.00291987 0.00127711 330.49 
1196 1 0.0384654 -0.00283657 0.000999995 327.356 
351 1 0.0409167 -0.00183629 0.000999995 336.706 
1003 1 0.0429073 -0.00158969 0.000999997 327.413 
545 1 0.0452833 -0.00262575 0.000999997 332.857 
31 1 0.0472197 -0.00212533 0.000999991 325.472 
1027 1 0.0491105 -0.00283465 0.000999996 309.859 
620 1 0.00150677 0.000624044 0.000999984 318.99 
817 1 0.00370968 0.00056964 0.000999998 300 
127 1 0.00591125 -0.000406584 0.00199601 373.472 
306 1 0.00756563 0.000823028 0.000999994 325.682 
167 1 0.00960301 -0.000600847 0.000999992 348.453 
721 1 0.0132144 -0.000384327 0.00191523 392.767 
33 1 0.015787 -0.000111335 0.000999998 300 
522 1 0.017804 -0.000350848 0.000999998 300 
1330 1 0.0201726 -0.000472049 0.000999998 300 
624 1 0.0239822 -0.000286865 0.000999988 363.893 
799 1 0.0222849 0.000162791 0.00195755 400.278 
644 1 0.0278053 -0.000973797 0.000999988 371.907 
181 1 0.0267602 0.000746129 0.000999994 364.884 
289 1 0.0300684 -0.000444246 0.000999989 353.063 
899 1 0.0320249 -2.93762e-05 0.000999997 323.527 
184 1 0.0341146 1.68792e-05 0.000999998 304.828 
1191 1 0.0369446 -0.000988248 0.000999998 311.568 
625 1 0.0395893 -0.000291058 0.000999998 319.223 
250 1 0.0417007 7.81933e-06 0.000999996 333.25 
1247 1 0.0440456 0.000574436 0.000999991 337.648 
518 1 0.045939 -0.000588995 0.000999992 341.179 
198 1 0.0476838 0.000898646 0.000999998 300 
527 1 0.0488465 -0.000852146 0.000999995 314.821 
904 1 0.0494914 0.00083641 0.00185608 340.409 
305 1 0.00264916 0.00226565 0.00100002 324.815 
408 1 0.00557638 0.00129512 0.000999993 343.478 
1037 1 0.00643218 0.00282586 0.00196146 364.299 
1054 1 0.00968458 0.00225442 0.000999996 324.502 
310 1 0.0118961 0.00105155 0.000999998 309.413 
364 1 0.0129022 0.00293552 0.000999998 316.083 
392 1 0.0139525 0.00123354 0.000999991 347.956 
430 1 0.0169059 0.00174167 0.000999993 350.175 
723 1 0.0189959 0.00172789 0.000999992 344.619 
279 1 0.0209923 0.00135248 0.000999998 300 
1099 1 0.0248586 0.00295496 0.000999993 358.438 
1044 1 0.0241312 0.00141222 0.00204443 412.797 
1226 1 0.0268526 0.0027672 0.000999989 377.636 
474 1 0.0285332 0.00167963 0.000999992 353.69 
1175 1 0.0304799 0.00146998 0.0014079 366.82 
280 1 0.033244 0.00181831 0.000999998 312.471 
476 1 0.0350733 0.0024588 0.0014934 347.329 
735 1 0.0363974 0.00104339 0.000999985 359.627 
311 1 0.0384834 0.00158561 0.000999987 357.67 
562 1 0.0405308 0.00178272 0.000999989 345.386 
197 1 0.0425283 0.0018813 0.000999995 327.522 
615 1 0.0443907 0.00261031 0.000999986 340.562 
568 1 0.0458138 0.00132471 0.00156747 366.93 
1197 1 0.0497082 0.00263088 0.000999994 336.967 
366 1 0.00100063 0.00383724 0.000999997 305.938 
920 1 0.0043839 0.00326097 0.00099999 326.308 
1036 1 0.00644525 0.00457953 0.000999989 326.824 
314 1 0.00844652 0.00420226 0.000999998 300 
1224 1 0.0104826 0.00408961 0.000999992 335.744 
1124 1 0.0123036 0.0049164 0.000999992 342.788 
1286 1 0.0152051 0.00422662 0.000999983 353.321 
972 1 0.0186014 0.00369399 0.000999996 327.226 
493 1 0.0202753 0.0030119 0.00185588 394.278 
939 1 0.02075 0.00475605 0.000999988 364.671 
923 1 0.0220823 0.00307749 0.000999993 354.395 
241 1 0.0235323 0.00445514 0.00099999 366.676 
322 1 0.0254857 0.00479463 0.00147149 373.776 
485 1 0.0274261 0.00468323 0.000999995 352.314 
814 1 0.0294225 0.00456453 0.000999989 358.997 
1229 1 0.031651 0.00303909 0.000999991 351.483 
879 1 0.0329329 0.00472669 0.000999998 300 
1019 1 0.0354244 0.00436559 0.000999992 343.845 
26 1 0.0374497 0.00408387 0.000999998 300 
946 1 0.0393305 0.00340354 0.000999998 314.003 
1314 1 0.041438 0.0035651 0.000999997 330.817 
300 1 0.0429164 0.00497018 0.000999991 337.008 
757 1 0.0450353 0.00455743 0.000999996 326.552 
121 1 0.0464429 0.00313648 0.000999998 300 
2899 1 0.0491937 0.0045982 0.000999981 344.292 
235 1 0.0481355 0.00327053 0.00205706 373.659 
852 1 0.00147344 0.00578054 0.000999994 304.068 
143 1 0.00359123 0.00509717 0.000999997 319.634 
712 1 0.00611097 0.00655139 0.000999995 318.176 
857 1 0.00765647 0.00583318 0.0020467 336.042 
156 1 0.0101027 0.00606714 0.000999991 332.469 
733 1 0.0125017 0.00690655 0.000999988 340.623 
761 1 0.0142907 0.00601072 0.000999998 300 
1306 1 0.0170989 0.00501409 0.000999991 337.494 
1285 1 0.0165013 0.00696631 0.000999998 308.51 
237 1 0.0189814 0.0056897 0.000999997 333.693 
621 1 0.0222928 0.00602882 0.00099999 350.099 
1134 1 0.0242725 0.00631312 0.000999989 354.758 
1154 1 0.028986 0.0067722 0.000999991 356.128 
332 1 0.0310772 0.00569306 0.000999998 300 
404 1 0.0326452 0.00696578 0.000999994 337.82 
1299 1 0.0344553 0.0061151 0.000999994 336.201 
1088 1 0.0366774 0.00592881 0.000999988 367.448 
54 1 0.0390828 0.00538836 0.000999994 333.874 
176 1 0.0410339 0.00582837 0.000999992 330.1 
544 1 0.0455157 0.00651417 0.000999998 300 
469 1 0.0472716 0.00515104 0.000999995 321.556 
14 1 0.0486979 0.00655309 0.000999996 326.712 
741 1 0.000999996 0.00772368 0.00100003 303.676 
187 1 0.00278473 0.00862649 0.000999991 307.273 
540 1 0.00401709 0.00705129 0.000999987 313.962 
193 1 0.00477708 0.00895798 0.000999998 300 
253 1 0.0068207 0.00842122 0.000999996 313.444 
959 1 0.00850773 0.00730957 0.000999992 321.483 
328 1 0.0114071 0.00885075 0.000999998 300 
718 1 0.0132987 0.00844915 0.0019926 342.483 
978 1 0.0151909 0.00848408 0.000999991 334.653 
488 1 0.0171399 0.00893312 0.000999991 330.256 
847 1 0.0186891 0.00766823 0.000999992 336.583 
473 1 0.0206946 0.00740127 0.000999998 300 
854 1 0.0226507 0.00799697 0.000999991 355.699 
207 1 0.026375 0.00739618 0.000999998 300.177 
513 1 0.0293352 0.00896057 0.00151575 332.259 
651 1 0.0307733 0.00766986 0.000999989 339.404 
1298 1 0.0326488 0.00875108 0.00190147 332.695 
1244 1 0.0353883 0.00770327 0.00177925 370.856 
611 1 0.0372176 0.00791835 0.000999986 341.485 
730 1 0.0393595 0.00754707 0.000999997 328.349 
835 1 0.0417267 0.00744182 0.00195747 374.413 
110 1 0.0436805 0.00766014 0.000999996 326.395 
428 1 0.0469194 0.00795518 0.000999997 304.985 
174 1 0.0497579 0.00825521 0.000999987 336.251 
205 1 0.00100021 0.00991911 0.000999985 302.462 
177 1 0.00272024 0.0104073 0.001908 304.78 
674 1 0.00638342 0.0103728 0.000999989 309.891 
79 1 0.00942032 0.00908922 0.000999998 317.388 
1320 1 0.0104938 0.0103921 0.00207241 326.822 
779 1 0.012119 0.0108494 0.00100017 319.242 
292 1 0.0139551 0.0100566 0.000999991 325.435 
11 1 0.015904 0.0105056 0.00099999 323.902 
50 1 0.0188973 0.00950435 0.00176508 323.055 
1042 1 0.0207436 0.00942881 0.000999998 306.417 
694 1 0.0226224 0.0101149 0.000999989 337.69 
147 1 0.0240051 0.00907428 0.00200252 373.177 
983 1 0.0256274 0.00967679 0.000999989 334.785 
798 1 0.0278229 0.0101635 0.000999996 313.819 
966 1 0.0311269 0.00968438 0.000999995 318.01 
1186 1 0.033815 0.0102344 0.000999995 323.766 
1091 1 0.035782 0.00950263 0.000999993 337.432 
93 1 0.0382867 0.00960858 0.000999998 329.619 
1160 1 0.0399631 0.0106994 0.000999988 314.184 
575 1 0.0411762 0.00910919 0.00099999 330.861 
985 1 0.04312 0.00957997 0.000999996 314.649 
359 1 0.0453271 0.00941899 0.000999995 320.459 
969 1 0.0472618 0.00992566 0.000999998 308.008 
78 1 0.0492059 0.0103951 0.000999992 308.038 
363 1 0.000999994 0.0125472 0.000999995 300.602 
811 1 0.00296408 0.0122886 0.00127469 302.169 
743 1 0.00449491 0.0110312 0.000999993 303.64 
1251 1 0.00600936 0.0123375 0.000999995 303.157 
72 1 0.009055 0.0112752 0.000999994 309.708 
1313 1 0.0110293 0.0125265 0.00099999 308.941 
654 1 0.0139151 0.0120596 0.000999989 317.462 
271 1 0.0178307 0.0110468 0.000999998 300 
15 1 0.0191506 0.0123316 0.00178965 316.88 
215 1 0.0208644 0.0116686 0.00099999 318.701 
420 1 0.0226323 0.0118976 0.00190669 325.155 
449 1 0.0244554 0.012149 0.000999998 308.467 
39 1 0.0263672 0.0115349 0.000999992 316.086 
188 1 0.0295985 0.0111181 0.000999991 323.598 
425 1 0.028129 0.0124814 0.000999992 307.533 
1095 1 0.0312193 0.01229 0.000999998 300.001 
1227 1 0.033219 0.0122468 0.000999995 312.034 
119 1 0.0353449 0.0122916 0.000999998 300 
650 1 0.0369685 0.0111127 0.000999989 323.462 
1138 1 0.0386186 0.0122428 0.000999992 315.293 
979 1 0.0405124 0.0124274 0.00184388 322.082 
316 1 0.0424181 0.0117033 0.000999998 304.139 
1297 1 0.0443447 0.0111611 0.00099999 317.198 
1206 1 0.046545 0.0118446 0.000999993 311.651 
380 1 0.0484365 0.0121497 0.00157368 304.764 
347 1 0.00209295 0.014 0.00183359 300.582 
309 1 0.00396196 0.014 0.000999998 300.854 
1130 1 0.00566062 0.014 0.00205571 302.408 
807 1 0.00735927 0.014 0.000999991 301.867 
114 1 0.00931258 0.0135525 0.000999993 303.482 
240 1 0.0123816 0.014 0.000999997 304.24 
672 1 0.0144052 0.014 0.000999998 303.074 
729 1 0.0161846 0.014 0.00191321 311.422 
758 1 0.0179409 0.0137147 0.000999996 307.445 
1038 1 0.0199206 0.014 0.000999993 306.615 
81 1 0.0217812 0.0139926 0.00173331 312.356 
676 1 0.0236419 0.0139761 0.000999994 306.454 
534 1 0.0264771 0.0137787 0.000999998 300 
526 1 0.0299137 0.014 0.000999997 302.241 
101 1 0.0322566 0.014 0.000999994 306.704 
1304 1 0.0342566 0.014 0.00099999 308.498 
1171 1 0.0370633 0.0139121 0.000999998 300 
442 1 0.0396097 0.014 0.000999989 310.832 
348 1 0.0423182 0.0137131 0.000999998 300 
626 1 0.0443208 0.014 0.000999994 303.463 
935 1 0.0466492 0.0139493 0.000999998 300 
766 1 0.0489339 0.014 0.000999995 302.819 
728 1 0.00392052 -0.014 0.00238429 305.201 
1249 1 0.00256444 -0.0132265 0.00363435 312.514 
929 1 0.00450257 -0.0131416 0.00412055 321.801 
1137 1 0.00634469 -0.014 0.00274303 310.448 
1097 1 0.0078871 -0.0133954 0.0038635 329.864 
598 1 0.0095839 -0.014 0.0029944 319.166 
1056 1 0.0115791 -0.014 0.0031329 320.797 
747 1 0.0135702 -0.014 0.00294461 312.053 
1337 1 0.0162623 -0.0135725 0.00273454 307.131 
789 1 0.0184969 -0.014 0.00263796 321.925 
894 1 0.0203583 -0.014 0.00336963 323.126 
507 1 0.0220847 -0.0132262 0.00272104 320.981 
170 1 0.0250702 -0.014 0.00238244 314.065 
993 1 0.0240141 -0.0139722 0.00408059 337.779 
1048 1 0.0275175 -0.0134232 0.00263438 325.797 
1267 1 0.0262053 -0.014 0.00402915 310.744 
43 1 0.0295 -0.014 0.00274091 317.072 
1169 1 0.0312288 -0.014 0.00374657 335.344 
1008 1 0.0331407 -0.0134146 0.0037886 325.167 
1168 1 0.0342309 -0.014 0.00221734 314.602 
288 1 0.0350354 -0.014 0.00404837 324.738 
158 1 0.0375146 -0.014 0.00317125 306.705 
47 1 0.0406544 -0.0133617 0.00269294 330.819 
274 1 0.0425983 -0.014 0.00386091 325.366 
652 1 0.0441287 -0.014 0.00257328 314.525 
689 1 0.0463276 -0.014 0.00275222 309.769 
1184 1 0.0483371 -0.014 0.00274697 309.052 
1026 1 0.000999991 -0.0126891 0.00251021 305.388 
261 1 0.000999995 -0.011326 0.00397369 310.328 
1343 1 0.00301409 -0.0113076 0.00397475 325.449 
87 1 0.00423913 -0.0120312 0.0022356 306.198 
355 1 0.00504244 -0.0112267 0.00391614 336.285 
1208 1 0.00656471 -0.0120234 0.00253146 308.65 
22 1 0.00843274 -0.011079 0.00371936 348.186 
378 1 0.0101037 -0.0120919 0.00329275 330.394 
1220 1 0.0128444 -0.012285 0.00367402 326.134 
4 1 0.0145348 -0.0124065 0.00221646 314.683 
336 1 0.015519 -0.0118383 0.00386221 321.594 
622 1 0.0176585 -0.0122282 0.00224094 312.953 
1077 1 0.0174136 -0.0112732 0.00416425 348.61 
736 1 0.0189909 -0.012447 0.00379728 367.711 
681 1 0.0203697 -0.0122626 0.00236006 309.893 
859 1 0.022665 -0.0115618 0.00410205 360.903 
806 1 0.0239103 -0.0124121 0.00278814 339.363 
1152 1 0.0260548 -0.0120702 0.00246214 337.62 
999 1 0.0279366 -0.0119296 0.00389669 343.701 
1316 1 0.0289735 -0.011821 0.0021899 334.747 
797 1 0.029953 -0.0124734 0.00395094 340.428 
1264 1 0.0315301 -0.0122716 0.00273395 312.409 
20 1 0.0336445 -0.0118753 0.00261523 349.995 
1336 1 0.0350723 -0.0118548 0.00401562 340.667 
1126 1 0.0354465 -0.0110244 0.00213404 338.341 
233 1 0.0359508 -0.0129117 0.00256269 313.923 
450 1 0.0369507 -0.0113847 0.00340195 348.629 
160 1 0.0392319 -0.0123737 0.00369314 363.949 
724 1 0.0409925 -0.0114286 0.00230715 345.985 
876 1 0.0419024 -0.0120667 0.00396995 361.386 
872 1 0.0425493 -0.0128203 0.00223337 311.571 
704 1 0.0449215 -0.0120423 0.00276611 320.315 
945 1 0.0469145 -0.0120959 0.00292509 329.537 
221 1 0.0489219 -0.0120878 0.00278378 331.239 
1245 1 0.000999993 -0.00928449 0.00395345 316.221 
744 1 0.00199872 -0.0103191 0.00256345 315.049 
635 1 0.00390569 -0.00984746 0.00293895 329.525 
136 1 0.00590224 -0.00974057 0.00289044 337.813 
418 1 0.00782929 -0.00974667 0.00235529 339.443 
1057 1 0.0112144 -0.00913699 0.00230648 339.47 
259 1 0.0102857 -0.010154 0.00396539 380.93 
1318 1 0.0125372 -0.0106075 0.00262928 355.202 
725 1 0.0121185 -0.00937428 0.00414712 412.748 
1205 1 0.0144017 -0.00990101 0.00247217 365.66 
422 1 0.0163222 -0.0103914 0.00273907 340.327 
924 1 0.0183927 -0.0103733 0.00267041 354.571 
395 1 0.0200087 -0.0107212 0.00379621 359.938 
1195 1 0.0205045 -0.00947314 0.00231414 338.023 
500 1 0.0225748 -0.0102262 0.0026161 349.628 
213 1 0.0246572 -0.0105577 0.00272838 340.694 
909 1 0.0263344 -0.0095128 0.00242 368.437 
740 1 0.0265318 -0.0105259 0.00413308 386.652 
521 1 0.0284821 -0.00929895 0.00254496 385.478 
997 1 0.0297075 -0.0105331 0.00353251 375.997 
445 1 0.0304806 -0.00911342 0.00235493 369.612 
1261 1 0.0322714 -0.0104207 0.00289093 321.024 
529 1 0.0340991 -0.00964259 0.00265859 361.745 
277 1 0.0355513 -0.00991304 0.00402491 390.438 
124 1 0.0367214 -0.00947922 0.002462 380.558 
960 1 0.0385169 -0.0102744 0.00284128 367.77 
510 1 0.0401572 -0.0106169 0.00393302 409.496 
533 1 0.0434256 -0.0107171 0.00268929 353.01 
552 1 0.044975 -0.00945352 0.0026339 390.62 
697 1 0.0458235 -0.0106606 0.00398403 402.909 
440 1 0.0475928 -0.00981798 0.00358448 374.968 
1021 1 0.0490805 -0.0100354 0.00226562 353.476 
95 1 0.0495155 -0.0105984 0.00413479 384.538 
564 1 0.00099999 -0.00828587 0.00219099 313.637 
1178 1 0.00294431 -0.00812116 0.0026297 319.91 
1005 1 0.00493772 -0.00799531 0.00273643 352.789 
284 1 0.00642498 -0.00807971 0.00407095 376.359 
27 1 0.00807073 -0.00718883 0.00266529 378.237 
344 1 0.00938651 -0.00866083 0.00298457 369.371 
455 1 0.0105623 -0.00708018 0.00263943 384.865 
636 1 0.0124312 -0.00770239 0.00298568 380.516 
1006 1 0.0139625 -0.00858986 0.00391714 415.07 
457 1 0.0154895 -0.00790228 0.00238508 320.254 
719 1 0.0174886 -0.00898444 0.00379015 400.485 
970 1 0.0173748 -0.00710733 0.00303941 378.244 
179 1 0.019032 -0.00819104 0.00275844 386.459 
138 1 0.0218439 -0.00861733 0.00355266 401.637 
818 1 0.0203462 -0.00738063 0.00402971 445.378 
246 1 0.0236322 -0.00852863 0.00260825 351.363 
52 1 0.0251761 -0.00874884 0.00386041 400.54 
788 1 0.0270982 -0.00816529 0.00368523 405.985 
988 1 0.028116 -0.00722336 0.00224411 391.49 
490 1 0.0294674 -0.00792801 0.00361716 424.695 
84 1 0.031579 -0.00882185 0.0040007 445.944 
574 1 0.0326897 -0.00787248 0.00263506 375.313 
1270 1 0.0346324 -0.00763772 0.00222151 367.909 
890 1 0.0361877 -0.00783246 0.00346367 433.887 
51 1 0.0380266 -0.00798128 0.00269142 416.327 
631 1 0.0399048 -0.00892272 0.00234495 341.408 
96 1 0.0393912 -0.00787195 0.00414942 492.011 
511 1 0.0410111 -0.00732224 0.00280826 364.062 
466 1 0.041122 -0.00887299 0.00410041 490.992 
1303 1 0.0421003 -0.00893786 0.00235721 389.547 
958 1 0.0436162 -0.00824038 0.00345969 436.004 
801 1 0.0466159 -0.00823817 0.00279014 396.326 
12 1 0.0485517 -0.00783185 0.00249456 367.584 
1322 1 0.00166231 -0.00652449 0.00286836 333.042 
1341 1 0.00396419 -0.00627271 0.00244508 344.177 
558 1 0.00510905 -0.00651309 0.00406821 394.869 
1255 1 0.00617585 -0.0056989 0.0025853 361.926 
56 1 0.00920399 -0.00554256 0.00273928 400.161 
1328 1 0.0124008 -0.00589791 0.00386145 464.398 
981 1 0.0141383 -0.00669754 0.00326137 392.001 
63 1 0.016488 -0.00538171 0.00255375 399.429 
942 1 0.0197866 -0.00626282 0.00246853 415.155 
1115 1 0.0187325 -0.00616465 0.0041654 480.374 
394 1 0.0204476 -0.00512481 0.00397452 420.136 
433 1 0.0221624 -0.00664013 0.00363846 460.428 
1004 1 0.0238057 -0.00623755 0.0025719 400.022 
957 1 0.0256907 -0.00562412 0.0028533 367.383 
436 1 0.0276169 -0.00518118 0.0025475 411.975 
769 1 0.0283152 -0.00634638 0.0040305 475.333 
141 1 0.0300155 -0.00540323 0.00326521 435.207 
59 1 0.0319484 -0.00601689 0.00271977 391.302 
104 1 0.0339034 -0.00541545 0.00219479 363.329 
489 1 0.0353605 -0.00612222 0.00408883 449.795 
1166 1 0.0366481 -0.00613693 0.00250276 331.042 
58 1 0.0378524 -0.00653306 0.00405974 463.528 
593 1 0.0392466 -0.00639765 0.00263055 389.632 
897 1 0.041185 -0.00533196 0.00253628 402.358 
1 1 0.0428685 -0.00661072 0.0025736 384.227 
759 1 0.0446992 -0.00576291 0.00298167 397.527 
396 1 0.0462771 -0.0066257 0.00392378 444.406 
1234 1 0.0482705 -0.00512445 0.00266 369.916 
3839 1 0.0498275 -0.00635211 0.00292208 400.071 
539 1 0.000999991 -0.00463755 0.00284091 322.14 
502 1 0.0028692 -0.00496099 0.00348449 342.202 
1090 1 0.00241806 -0.00326162 0.00253127 333.157 
666 1 0.00465322 -0.00440221 0.00271947 350.972 
102 1 0.00755571 -0.00396157 0.00273142 393.823 
263 1 0.00952789 -0.00357948 0.00294262 428.99 
659 1 0.0111076 -0.00492458 0.00267413 369.904 
61 1 0.0132155 -0.00474062 0.00244835 395.59 
701 1 0.014857 -0.00485586 0.003585 443.863 
968 1 0.0144952 -0.00320426 0.00249262 396.71 
949 1 0.0164875 -0.00336364 0.00242094 384.012 
815 1 0.0184075 -0.00482756 0.00266398 405.75 
941 1 0.0219151 -0.00493099 0.00262965 397.919 
793 1 0.0203805 -0.00364863 0.00260586 406.129 
371 1 0.0217992 -0.00348212 0.00400576 508.742 
437 1 0.0237219 -0.00436751 0.00327611 394.51 
232 1 0.0256883 -0.00374046 0.00360621 430.49 
1053 1 0.0274331 -0.0032043 0.00278871 387.992 
1113 1 0.0294168 -0.00367225 0.0024619 423.445 
239 1 0.0285386 -0.00436099 0.00412155 507.442 
125 1 0.0313661 -0.00411936 0.00247416 387.762 
503 1 0.0305202 -0.00320882 0.00406428 491.463 
685 1 0.0338027 -0.00315327 0.00216831 355.221 
1183 1 0.0329001 -0.00455259 0.00369441 385.736 
607 1 0.0355435 -0.00451931 0.00290681 410.834 
670 1 0.0344352 -0.0033252 0.00406679 492.58 
337 1 0.0372277 -0.00348272 0.00320522 419.622 
1129 1 0.0385362 -0.00458563 0.00217014 374.747 
731 1 0.0397943 -0.0039422 0.00358553 470.488 
571 1 0.0429846 -0.00447594 0.00270542 364.59 
971 1 0.0428698 -0.00304037 0.00409671 474.93 
708 1 0.0447234 -0.00389631 0.00371446 399.31 
886 1 0.0466457 -0.00466918 0.00373368 370.045 
1181 1 0.0478672 -0.0031672 0.00257964 367.488 
7 1 0.000999995 -0.00224926 0.00351349 335.476 
194 1 0.00444504 -0.00241389 0.00266259 374.165 
824 1 0.00663811 -0.002199 0.00250483 382.689 
850 1 0.00789364 -0.0024833 0.00403545 402.401 
520 1 0.00878403 -0.00181657 0.00236061 391.705 
1122 1 0.011365 -0.00295271 0.00246086 404.141 
1071 1 0.0110248 -0.00157098 0.0038662 459.56 
1326 1 0.0128951 -0.00189142 0.00319063 419.453 
592 1 0.0149515 -0.00128289 0.00280888 412.292 
251 1 0.0169801 -0.001426 0.00247444 377.97 
702 1 0.0161354 -0.00228746 0.00406953 375.601 
1149 1 0.0180125 -0.00280077 0.00358607 451 
379 1 0.0189674 -0.00158635 0.00231587 382.122 
1284 1 0.0210353 -0.00176092 0.00269408 430.644 
794 1 0.0227832 -0.00284188 0.00238658 417.187 
448 1 0.0225297 -0.0013417 0.0039554 485.525 
1114 1 0.0242126 -0.00239472 0.00371208 489.495 
1335 1 0.0270199 -0.00120829 0.00282432 468.382 
687 1 0.0291767 -0.00168212 0.00229324 417.144 
753 1 0.0287052 -0.00236798 0.00411184 514.521 
628 1 0.0312942 -0.00143576 0.00223057 354.836 
937 1 0.0323336 -0.00265285 0.00342984 431.302 
637 1 0.0355118 -0.00215918 0.00284971 409.643 
998 1 0.0373732 -0.001489 0.00314284 395.816 
128 1 0.0393168 -0.00208354 0.00264561 368.873 
871 1 0.0411969 -0.00260098 0.00308983 346.765 
992 1 0.0426257 -0.00120919 0.00294356 365.578 
587 1 0.0438385 -0.00269671 0.00238109 386.104 
710 1 0.0445866 -0.00189194 0.0040522 465.355 
512 1 0.0461727 -0.00207084 0.00270327 327.786 
21 1 0.0478069 -0.00170423 0.00394202 442.187 
1170 1 0.0495766 -0.00258666 0.00344025 398.288 
822 1 0.000999987 -0.000473589 0.00259319 325.442 
109 1 0.0024542 -0.000832872 0.00391839 370.827 
528 1 0.00578114 -0.000842966 0.00394346 442.172 
242 1 0.00411277 -0.000225061 0.00285187 352.318 
144 1 0.00763281 -0.000245222 0.00300108 390.073 
1192 1 0.00914761 -0.000927255 0.00411472 442.59 
419 1 0.00945075 0.000512878 0.0026542 391.985 
412 1 0.0112445 -0.000305026 0.0023172 336.362 
1076 1 0.0126516 8.4254e-06 0.00379379 450.835 
62 1 0.0149188 0.000712616 0.0026792 416.664 
296 1 0.0169126 0.000567618 0.00261911 412.201 
1125 1 0.0179476 -0.000535511 0.00398153 440.484 
229 1 0.0189022 0.000404401 0.0024965 408.729 
1121 1 0.0207436 0.000143193 0.00323189 434.317 
1269 1 0.0233602 0.000450973 0.00361969 489.077 
182 1 0.0248598 -0.000777839 0.00272881 373.949 
438 1 0.0259157 0.000919027 0.00280466 456.705 
1194 1 0.0286065 0.000232978 0.00237905 414.423 
896 1 0.0318096 -0.000830484 0.00406577 477.941 
1030 1 0.0305119 0.000242498 0.00298658 419.054 
334 1 0.033172 -0.000725086 0.00260031 322.454 
19 1 0.0356439 -0.00022773 0.00234772 409.033 
65 1 0.0377027 0.000305464 0.00232351 385.19 
1120 1 0.0390534 -0.000489579 0.00382456 447.73 
1079 1 0.0395763 0.00096548 0.00255594 382.654 
1268 1 0.0407291 -0.00066785 0.0026123 377.4 
267 1 0.0425149 0.000767667 0.00266122 366.827 
307 1 0.0436758 2.84904e-05 0.00411238 470.737 
640 1 0.0445885 -0.000664407 0.00247324 395.944 
1235 1 0.0459945 0.00043435 0.00337651 375.241 
559 1 0.0474154 -0.000541394 0.0023621 327.674 
70 1 0.0493083 -0.000516063 0.00336394 389.769 
777 1 0.000999995 0.00110825 0.00381703 324.07 
471 1 0.000999996 0.00219067 0.00213525 317.285 
1043 1 0.00259936 0.0010612 0.00261711 343.383 
1165 1 0.0043985 0.00192522 0.00248846 363.646 
1342 1 0.00615918 0.00122393 0.00312734 383.119 
948 1 0.00824989 0.00209418 0.00238418 353.306 
73 1 0.00954494 0.00198347 0.0040064 423.21 
505 1 0.0109079 0.00187772 0.00253671 345.65 
921 1 0.0128894 0.00162969 0.00264707 349.916 
698 1 0.0148031 0.00263621 0.00214408 389.467 
542 1 0.0161275 0.00214771 0.00356089 396.578 
202 1 0.0179548 0.00149021 0.00405531 473.592 
1312 1 0.0198177 0.00190183 0.00345535 457.376 
1100 1 0.0218928 0.00199069 0.0026682 430.957 
902 1 0.024654 0.0020511 0.00386609 475.747 
715 1 0.0275718 0.00203697 0.00271739 448.985 
209 1 0.0292263 0.00157551 0.00374179 475.274 
68 1 0.030945 0.00242399 0.00317064 412.679 
189 1 0.0323332 0.0010903 0.00262827 364.303 
122 1 0.0331342 0.00221269 0.00408336 415.656 
1112 1 0.0343195 0.0011875 0.00284081 378.258 
1259 1 0.0371473 0.00244187 0.00221728 405.107 
570 1 0.0366618 0.0011466 0.00380976 462.564 