ITEM: TIMESTEP
19800000
ITEM: NUMBER OF ATOMS
5000
ITEM: BOX BOUNDS mm mm mm
0 0.1
-0.015 0.015
0 0.3
ITEM: ATOMS id type x y z f_Temp[0] 
977 1 0.00102825 -0.014 0.000999993 301.833 
581 1 0.00280538 -0.013082 0.000999998 300 
980 1 0.00536401 -0.0139934 0.000999992 304.196 
1252 1 0.00736681 -0.0139976 0.000999998 300 
648 1 0.00943464 -0.014 0.000999991 307.182 
1049 1 0.0114353 -0.0139953 0.000999998 300 
585 1 0.0133901 -0.013565 0.000999998 300 
453 1 0.0153494 -0.0139698 0.000999997 302.194 
812 1 0.0173493 -0.0139998 0.000999993 309.072 
1111 1 0.0195007 -0.0134438 0.000999984 309.376 
713 1 0.021422 -0.014 0.000999994 306.612 
1065 1 0.0234048 -0.014 0.00126756 303.846 
82 1 0.0265155 -0.0139931 0.000999994 311.458 
383 1 0.0285156 -0.014 0.000999992 309.166 
930 1 0.030521 -0.014 0.000999997 306.401 
936 1 0.0322405 -0.014 0.00202133 311.925 
1185 1 0.0365621 -0.014 0.000999997 303.642 
961 1 0.0387276 -0.014 0.00158109 313.019 
397 1 0.0415067 -0.014 0.000999998 308.652 
434 1 0.0453634 -0.0139995 0.000999989 306.499 
845 1 0.0473634 -0.013996 0.000999993 303.422 
69 1 0.0493634 -0.014 0.000999998 300 
775 1 0.00100002 -0.0113754 0.000999998 300 
100 1 0.0029795 -0.0110896 0.000999992 306.108 
914 1 0.00557519 -0.0112015 0.00100005 310.041 
80 1 0.00757517 -0.0111953 0.000999991 313.638 
451 1 0.00998402 -0.0120769 0.000999996 315.716 
796 1 0.00840292 -0.0126653 0.00207425 308.179 
693 1 0.0116631 -0.012314 0.00206038 326.18 
1317 1 0.0131863 -0.0115688 0.000999987 321.205 
915 1 0.0160944 -0.0121103 0.000999994 312.517 
410 1 0.0190455 -0.011496 0.000999996 311.861 
830 1 0.0224371 -0.0122702 0.000999998 300.9 
320 1 0.0247898 -0.0125822 0.000999992 313.425 
112 1 0.0274126 -0.0122056 0.000999996 317.433 
75 1 0.0305709 -0.0120006 0.000999993 316.017 
44 1 0.0325472 -0.012308 0.000999993 310.9 
903 1 0.0346614 -0.0124727 0.000999987 321.095 
501 1 0.0399655 -0.0125406 0.000999994 318.657 
606 1 0.0381813 -0.0121244 0.00200969 334.542 
895 1 0.0424953 -0.0112468 0.000999991 323.809 
98 1 0.0440827 -0.0124633 0.000999998 311.218 
591 1 0.0463626 -0.0121894 0.000999998 300 
260 1 0.0483399 -0.0113954 0.000999988 320.564 
341 1 0.00236835 -0.00912792 0.000999989 307.916 
781 1 0.00434315 -0.00962605 0.00099999 313.134 
163 1 0.00630249 -0.00922482 0.000999992 317.446 
180 1 0.00969329 -0.0104144 0.00207298 345.977 
657 1 0.0113778 -0.0106424 0.000999994 316.479 
479 1 0.0130888 -0.00957115 0.00099999 326.061 
1334 1 0.0156328 -0.00933789 0.000999989 333.522 
236 1 0.0173021 -0.0105161 0.00100003 328.519 
463 1 0.0189969 -0.0094543 0.000999987 332.582 
1058 1 0.020961 -0.0109208 0.000999997 310.019 
214 1 0.021988 -0.00920459 0.000999991 332.872 
48 1 0.0236592 -0.010687 0.000999996 323.1 
1001 1 0.0256579 -0.0107646 0.000999989 320.153 
157 1 0.0275721 -0.0101849 0.00099999 338.049 
154 1 0.0295703 -0.010269 0.000999998 335.527 
849 1 0.0316899 -0.0101271 0.000999998 305.744 
986 1 0.0337356 -0.0106994 0.000999992 327.227 
352 1 0.0353603 -0.00937906 0.000999998 335.662 
391 1 0.037078 -0.0107965 0.00099999 332.735 
828 1 0.0380495 -0.00904828 0.000999991 345.68 
1302 1 0.0391669 -0.010707 0.000999988 330.377 
1153 1 0.0410033 -0.00991491 0.000999992 336.482 
1029 1 0.0435086 -0.00935559 0.000999995 330.316 
734 1 0.0450013 -0.0106867 0.000999997 315.498 
168 1 0.0467898 -0.0104128 0.001852 331.88 
673 1 0.0479253 -0.00900397 0.000999991 331.366 
230 1 0.00208414 -0.00710001 0.000999993 316.444 
962 1 0.00400567 -0.00765473 0.000999989 323.219 
829 1 0.00807393 -0.0082964 0.000999989 331.138 
409 1 0.0100683 -0.00814704 0.00100015 328.352 
524 1 0.0120481 -0.00786324 0.000999994 323.636 
1221 1 0.0140493 -0.00781584 0.000999998 305.256 
1092 1 0.0173393 -0.0086903 0.00181755 357.883 
461 1 0.016624 -0.00701102 0.000999992 331.647 
1062 1 0.0197951 -0.00762048 0.000999986 352.91 
790 1 0.0215614 -0.00748521 0.00192831 380.669 
200 1 0.0233297 -0.00737885 0.000999993 352.422 
602 1 0.0247258 -0.00899514 0.000999997 320.078 
546 1 0.0254076 -0.0074302 0.00204216 328.78 
1240 1 0.0269157 -0.00822994 0.000999998 310.908 
247 1 0.0292594 -0.00829331 0.00099999 350.548 
973 1 0.0315646 -0.00811889 0.00099999 338.023 
1319 1 0.0334732 -0.00871669 0.000999992 338.571 
947 1 0.0365133 -0.00779137 0.00138712 320.054 
238 1 0.0398083 -0.00744564 0.000999998 328.433 
162 1 0.0418495 -0.00748746 0.000999997 318.293 
367 1 0.0444121 -0.00769988 0.0016651 332.347 
1274 1 0.0459344 -0.00881346 0.000999986 344.804 
1074 1 0.0498517 -0.00837799 0.000999998 300 
28 1 0.0010002 -0.00541922 0.000999994 309.552 
956 1 0.00299503 -0.00525862 0.000999998 300 
134 1 0.00500411 -0.00536152 0.000999994 331.41 
825 1 0.00684751 -0.00671657 0.000999995 329.32 
976 1 0.00894151 -0.00649438 0.000999994 341.757 
169 1 0.0109715 -0.00601028 0.000999993 341.433 
556 1 0.0129962 -0.00610228 0.000999995 342.38 
421 1 0.0149261 -0.00609382 0.001525 348.183 
1217 1 0.0184323 -0.00615665 0.000999998 336.523 
1325 1 0.0210607 -0.00573734 0.000999998 300 
496 1 0.0230199 -0.00528279 0.000999996 357.827 
639 1 0.024956 -0.005784 0.00099999 353.698 
1151 1 0.0269057 -0.0062297 0.000999984 353.546 
443 1 0.0289795 -0.00544672 0.000999998 300 
1231 1 0.0310306 -0.00545217 0.000999998 300 
146 1 0.0303193 -0.00698151 0.00207498 381.045 
1290 1 0.0330366 -0.00676492 0.000999997 328.713 
1075 1 0.0353259 -0.00621403 0.000999995 328.563 
618 1 0.038025 -0.00654034 0.000999998 308.961 
83 1 0.0399098 -0.00544822 0.000999985 352.399 
974 1 0.0424605 -0.00544572 0.000999991 348.93 
1289 1 0.0449382 -0.00588859 0.000999992 340.476 
772 1 0.0466402 -0.00609637 0.0020296 368.281 
530 1 0.0482999 -0.00652692 0.000999994 333.751 
283 1 0.00371058 -0.00338743 0.000999998 300 
750 1 0.00569458 -0.00311855 0.000999998 300.004 
234 1 0.00689912 -0.00471724 0.000999994 342.085 
1025 1 0.00808681 -0.00310798 0.000999998 300 
139 1 0.00957638 -0.00451693 0.000999998 300 
791 1 0.0119528 -0.0041857 0.000999985 357.048 
402 1 0.0153626 -0.004214 0.000999994 343.048 
1087 1 0.017357 -0.00447035 0.000999991 352.386 
519 1 0.0193899 -0.00431182 0.000999993 358.238 
275 1 0.0216938 -0.00378558 0.000999994 342.73 
142 1 0.0249492 -0.00393316 0.00175782 375.672 
90 1 0.0267754 -0.00423396 0.000999996 346.574 
492 1 0.032699 -0.00434362 0.000999993 337.265 
749 1 0.0350091 -0.00423928 0.000999994 341.637 
1187 1 0.0369358 -0.00484893 0.000999997 321.906 
175 1 0.0402006 -0.00358298 0.00166048 367.954 
1050 1 0.0420853 -0.00347573 0.000999995 329.691 
846 1 0.0439728 -0.00413701 0.000999988 340.993 
424 1 0.0456873 -0.00431841 0.00201368 350.045 
1243 1 0.0474114 -0.00430605 0.000999998 330.967 
3721 1 0.0493439 -0.00482097 0.000999988 327.532 
77 1 0.00106478 -0.00207826 0.000999998 300 
37 1 0.00269634 -0.00135299 0.00200246 340.364 
1108 1 0.00442621 -0.00130241 0.000999983 338.674 
385 1 0.0074663 -0.0011745 0.000999988 345.388 
89 1 0.0100508 -0.00255561 0.000999998 300 
318 1 0.0118586 -0.00167902 0.000999998 328.267 
32 1 0.0138228 -0.00205531 0.000999998 325.144 
964 1 0.0158217 -0.00212183 0.000999998 319.633 
1180 1 0.0177825 -0.00251614 0.000999993 339.093 
885 1 0.0201852 -0.00247261 0.000999997 346.274 
264 1 0.0220832 -0.00158202 0.000999986 368.937 
258 1 0.0241116 -0.00228266 0.001 379.819 
291 1 0.0258098 -0.00110755 0.000999998 331.863 
1052 1 0.0282802 -0.00291658 0.000999992 366.569 
486 1 0.0304223 -0.00274938 0.000999993 350.718 
401 1 0.0328101 -0.00186878 0.000999996 327.001 
91 1 0.0348112 -0.00186302 0.00099999 341.614 
1248 1 0.0364864 -0.00291987 0.00127711 330.755 
1196 1 0.0384654 -0.00283657 0.000999995 327.609 
351 1 0.0409167 -0.00183629 0.000999995 337.011 
1003 1 0.0429073 -0.00158969 0.000999997 327.676 
545 1 0.0452833 -0.00262575 0.000999997 333.194 
31 1 0.0472197 -0.00212533 0.000999991 325.782 
1027 1 0.0491105 -0.00283465 0.000999996 310.043 
620 1 0.00150677 0.000624044 0.000999984 319.027 
817 1 0.00370967 0.000569642 0.000999998 300 
127 1 0.00591125 -0.000406584 0.00199601 373.555 
306 1 0.00756563 0.000823028 0.000999994 325.767 
167 1 0.00960301 -0.000600847 0.000999992 348.568 
721 1 0.0132144 -0.000384327 0.00191523 393.065 
33 1 0.0157871 -0.000111326 0.000999998 300 
522 1 0.0178041 -0.000350915 0.000999998 300 
1330 1 0.0201725 -0.000472048 0.000999998 300 
624 1 0.0239822 -0.000286865 0.000999988 364.106 
799 1 0.0222849 0.000162791 0.00195755 400.625 
644 1 0.0278053 -0.000973797 0.000999988 372.052 
181 1 0.0267602 0.000746124 0.000999994 365.032 
289 1 0.0300684 -0.000444246 0.000999989 353.256 
899 1 0.0320249 -2.93762e-05 0.000999997 323.745 
184 1 0.0341146 1.68785e-05 0.000999998 304.903 
1191 1 0.0369446 -0.00098825 0.000999998 311.696 
625 1 0.0395895 -0.000291056 0.000999998 319.43 
250 1 0.0417007 7.81932e-06 0.000999996 333.59 
1247 1 0.0440456 0.000574438 0.000999991 337.916 
518 1 0.045939 -0.000588995 0.000999992 341.512 
198 1 0.0476838 0.000898647 0.000999998 300 
527 1 0.0488465 -0.000852146 0.000999995 315.079 
904 1 0.0494914 0.00083641 0.00185608 340.944 
305 1 0.00264916 0.00226565 0.00100002 324.878 
408 1 0.00557638 0.00129512 0.000999993 343.551 
1037 1 0.00643218 0.00282586 0.00196146 364.425 
1054 1 0.00968458 0.00225442 0.000999996 324.643 
310 1 0.0118961 0.00105155 0.000999998 309.486 
364 1 0.0129022 0.00293552 0.000999998 316.195 
392 1 0.0139525 0.00123354 0.000999991 348.149 
430 1 0.0169059 0.00174167 0.000999993 350.373 
723 1 0.0189959 0.00172789 0.000999992 344.781 
279 1 0.0209923 0.00135248 0.000999998 300 
1099 1 0.0248586 0.00295496 0.000999993 358.603 
1044 1 0.0241312 0.00141222 0.00204443 413.028 
1226 1 0.0268526 0.0027672 0.000999989 377.824 
474 1 0.0285332 0.00167963 0.000999992 353.922 
1175 1 0.0304799 0.00146998 0.0014079 367.131 
280 1 0.033244 0.00181831 0.000999998 312.628 
476 1 0.0350733 0.0024588 0.0014934 347.734 
735 1 0.0363974 0.00104339 0.000999985 359.931 
311 1 0.0384834 0.00158561 0.000999987 358.002 
562 1 0.0405308 0.00178272 0.000999989 345.703 
197 1 0.0425283 0.0018813 0.000999995 327.772 
615 1 0.0443907 0.00261031 0.000999986 340.887 
568 1 0.0458138 0.00132471 0.00156747 367.448 
1197 1 0.0497082 0.00263088 0.000999994 337.412 
366 1 0.00100063 0.00383724 0.000999997 305.958 
920 1 0.0043839 0.00326097 0.00099999 326.369 
1036 1 0.00644525 0.00457953 0.000999989 326.904 
314 1 0.0084465 0.00420219 0.000999998 300 
1224 1 0.0104826 0.00408961 0.000999992 335.861 
1124 1 0.0123036 0.0049164 0.000999992 342.927 
1286 1 0.0152051 0.00422662 0.000999983 353.47 
972 1 0.0186014 0.00369399 0.000999996 327.328 
493 1 0.0202753 0.0030119 0.00185588 394.525 
939 1 0.02075 0.00475605 0.000999988 364.822 
923 1 0.0220823 0.00307749 0.000999993 354.534 
241 1 0.0235323 0.00445514 0.00099999 366.854 
322 1 0.0254857 0.00479463 0.00147149 373.969 
485 1 0.0274261 0.00468323 0.000999995 352.487 
814 1 0.0294225 0.00456453 0.000999989 359.208 
1229 1 0.031651 0.00303909 0.000999991 351.758 
879 1 0.032933 0.00472671 0.000999998 300 
1019 1 0.0354244 0.00436559 0.000999992 344.05 
26 1 0.0374497 0.00408387 0.000999998 300 
946 1 0.0393305 0.00340354 0.000999998 314.196 
1314 1 0.041438 0.0035651 0.000999997 331.11 
300 1 0.0429164 0.00497018 0.000999991 337.301 
757 1 0.0450353 0.00455743 0.000999996 326.795 
121 1 0.0464429 0.00313648 0.000999998 300 
2899 1 0.0491937 0.0045982 0.000999981 344.662 
235 1 0.0481355 0.00327053 0.00205706 374.216 
852 1 0.00147344 0.00578054 0.000999994 304.087 
143 1 0.00359123 0.00509717 0.000999997 319.691 
712 1 0.00611097 0.00655139 0.000999995 318.264 
857 1 0.00765647 0.00583318 0.0020467 336.205 
156 1 0.0101027 0.00606714 0.000999991 332.568 
733 1 0.0125017 0.00690655 0.000999988 340.754 
761 1 0.0142907 0.00601073 0.000999998 300 
1306 1 0.0170989 0.00501409 0.000999991 337.589 
1285 1 0.0165013 0.0069663 0.000999998 308.593 
237 1 0.0189814 0.0056897 0.000999997 333.801 
621 1 0.0222928 0.00602882 0.00099999 350.208 
1134 1 0.0242725 0.00631312 0.000999989 354.895 
1154 1 0.028986 0.0067722 0.000999991 356.287 
332 1 0.0310772 0.00569306 0.000999998 300 
404 1 0.0326452 0.00696578 0.000999994 338.017 
1299 1 0.0344553 0.0061151 0.000999994 336.417 
1088 1 0.0366774 0.00592881 0.000999988 367.642 
54 1 0.0390828 0.00538836 0.000999994 334.066 
176 1 0.0410339 0.00582837 0.000999992 330.357 
544 1 0.0455156 0.00651421 0.000999998 300 
469 1 0.0472716 0.00515104 0.000999995 321.841 
14 1 0.0486979 0.00655309 0.000999996 327.035 
741 1 0.000999996 0.00772368 0.00100003 303.7 
187 1 0.00278473 0.00862649 0.000999991 307.318 
540 1 0.00401709 0.00705129 0.000999987 314.016 
193 1 0.00477712 0.00895793 0.000999998 300 
253 1 0.0068207 0.00842122 0.000999996 313.527 
959 1 0.00850773 0.00730957 0.000999992 321.596 
328 1 0.0114071 0.0088507 0.000999998 300 
718 1 0.0132987 0.00844915 0.0019926 342.659 
978 1 0.0151909 0.00848408 0.000999991 334.754 
488 1 0.0171399 0.00893312 0.000999991 330.364 
847 1 0.0186891 0.00766823 0.000999992 336.709 
473 1 0.0206946 0.00740127 0.000999998 300 
854 1 0.0226507 0.00799697 0.000999991 355.85 
207 1 0.026375 0.00739618 0.000999998 300.174 
513 1 0.0293352 0.00896057 0.00151575 332.432 
651 1 0.0307733 0.00766986 0.000999989 339.557 
1298 1 0.0326488 0.00875108 0.00190147 332.966 
1244 1 0.0353883 0.00770327 0.00177925 371.171 
611 1 0.0372176 0.00791835 0.000999986 341.7 
730 1 0.0393596 0.00754702 0.000999997 328.543 
835 1 0.0417267 0.00744182 0.00195747 374.815 
110 1 0.0436805 0.00766014 0.000999996 326.609 
428 1 0.0469194 0.00795518 0.000999997 305.098 
174 1 0.0497579 0.00825521 0.000999987 336.625 
205 1 0.00100021 0.00991911 0.000999985 302.481 
177 1 0.00272024 0.0104073 0.001908 304.822 
674 1 0.00638342 0.0103728 0.000999989 309.954 
79 1 0.00942032 0.00908922 0.000999998 317.501 
1320 1 0.0104938 0.0103921 0.00207241 326.967 
779 1 0.012119 0.0108494 0.00100017 319.355 
292 1 0.0139551 0.0100566 0.000999991 325.543 
11 1 0.015904 0.0105056 0.00099999 323.99 
50 1 0.0188973 0.00950435 0.00176508 323.202 
1042 1 0.0207436 0.00942881 0.000999998 306.477 
694 1 0.0226224 0.0101149 0.000999989 337.807 
147 1 0.0240051 0.00907428 0.00200252 373.342 
983 1 0.0256274 0.00967679 0.000999989 334.932 
798 1 0.0278229 0.0101635 0.000999996 313.915 
966 1 0.0311269 0.00968438 0.000999995 318.159 
1186 1 0.033815 0.0102344 0.000999995 323.939 
1091 1 0.035782 0.00950263 0.000999993 337.638 
93 1 0.0382867 0.00960858 0.000999998 329.839 
1160 1 0.0399631 0.0106994 0.000999988 314.341 
575 1 0.0411762 0.00910919 0.00099999 331.101 
985 1 0.04312 0.00957997 0.000999996 314.81 
359 1 0.0453271 0.00941899 0.000999995 320.664 
969 1 0.0472618 0.00992566 0.000999998 308.137 
78 1 0.0492059 0.0103951 0.000999992 308.184 
363 1 0.000999994 0.0125472 0.000999995 300.609 
811 1 0.00296408 0.0122886 0.00127469 302.192 
743 1 0.00449491 0.0110312 0.000999993 303.672 
1251 1 0.00600936 0.0123375 0.000999995 303.184 
72 1 0.009055 0.0112752 0.000999994 309.777 
1313 1 0.0110293 0.0125265 0.00099999 309 
654 1 0.0139151 0.0120596 0.000999989 317.537 
271 1 0.0178307 0.0110467 0.000999998 300 
15 1 0.0191506 0.0123316 0.00178965 316.992 
215 1 0.0208644 0.0116686 0.00099999 318.792 
420 1 0.0226323 0.0118976 0.00190669 325.311 
449 1 0.0244554 0.012149 0.000999998 308.551 
39 1 0.0263672 0.0115349 0.000999992 316.18 
188 1 0.0295985 0.0111181 0.000999991 323.733 
425 1 0.028129 0.0124814 0.000999992 307.589 
1095 1 0.0312193 0.01229 0.000999998 300 
1227 1 0.033219 0.0122468 0.000999995 312.141 
119 1 0.0353449 0.0122916 0.000999998 300 
650 1 0.0369685 0.0111127 0.000999989 323.638 
1138 1 0.0386186 0.0122428 0.000999992 315.447 
979 1 0.0405124 0.0124274 0.00184388 322.298 
316 1 0.0424181 0.0117033 0.000999998 304.217 
1297 1 0.0443447 0.0111611 0.00099999 317.393 
1206 1 0.046545 0.0118446 0.000999993 311.828 
380 1 0.0484365 0.0121497 0.00157368 304.878 
347 1 0.00209295 0.014 0.00183359 300.59 
309 1 0.00396196 0.014 0.000999998 300.864 
1130 1 0.00566062 0.014 0.00205571 302.432 
807 1 0.00735927 0.014 0.000999991 301.886 
114 1 0.00931258 0.0135525 0.000999993 303.512 
240 1 0.0123816 0.014 0.000999997 304.267 
672 1 0.0144052 0.014 0.000999998 303.096 
729 1 0.0161846 0.014 0.00191321 311.478 
758 1 0.0179409 0.0137147 0.000999996 307.499 
1038 1 0.0199206 0.014 0.000999993 306.665 
81 1 0.0217812 0.0139926 0.00173331 312.44 
676 1 0.0236419 0.0139761 0.000999994 306.506 
534 1 0.0264771 0.0137788 0.000999998 300 
526 1 0.0299137 0.014 0.000999997 302.275 
101 1 0.0322566 0.014 0.000999994 306.765 
1304 1 0.0342566 0.014 0.00099999 308.562 
1171 1 0.037063 0.0139123 0.000999998 300 
442 1 0.0396097 0.014 0.000999989 310.952 
348 1 0.0423181 0.0137131 0.000999998 300 
626 1 0.0443208 0.014 0.000999994 303.53 
935 1 0.0466491 0.0139493 0.000999998 300 
766 1 0.0489339 0.014 0.000999995 302.89 
728 1 0.00392052 -0.014 0.00238429 305.231 
1249 1 0.00256444 -0.0132265 0.00363435 312.57 
929 1 0.00450257 -0.0131416 0.00412055 321.9 
1137 1 0.00634469 -0.014 0.00274303 310.49 
1097 1 0.0078871 -0.0133954 0.0038635 329.934 
598 1 0.0095839 -0.014 0.0029944 319.218 
1056 1 0.0115791 -0.014 0.0031329 320.848 
747 1 0.0135702 -0.014 0.00294461 312.103 
1337 1 0.0162623 -0.0135725 0.00273454 307.179 
789 1 0.0184969 -0.014 0.00263796 321.971 
894 1 0.0203583 -0.014 0.00336963 323.194 
507 1 0.0220847 -0.0132262 0.00272104 321.079 
170 1 0.0250702 -0.014 0.00238244 314.139 
993 1 0.0240141 -0.0139722 0.00408059 337.898 
1048 1 0.0275175 -0.0134232 0.00263438 325.914 
1267 1 0.0262053 -0.014 0.00402915 310.82 
43 1 0.0295 -0.014 0.00274091 317.179 
1169 1 0.0312288 -0.014 0.00374657 335.494 
1008 1 0.0331407 -0.0134146 0.0037886 325.35 
1168 1 0.0342309 -0.014 0.00221734 314.712 
288 1 0.0350354 -0.014 0.00404837 324.895 
158 1 0.0375146 -0.014 0.00317125 306.804 
47 1 0.0406544 -0.0133617 0.00269294 331.073 
274 1 0.0425983 -0.014 0.00386091 325.578 
652 1 0.0441287 -0.014 0.00257328 314.679 
689 1 0.0463276 -0.014 0.00275222 309.929 
1184 1 0.0483371 -0.014 0.00274697 309.197 
1026 1 0.000999991 -0.0126891 0.00251021 305.414 
261 1 0.000999995 -0.011326 0.00397369 310.361 
1343 1 0.00301409 -0.0113076 0.00397475 325.523 
87 1 0.00423913 -0.0120312 0.0022356 306.244 
355 1 0.00504244 -0.0112267 0.00391614 336.406 
1208 1 0.00656471 -0.0120234 0.00253146 308.708 
22 1 0.00843274 -0.011079 0.00371936 348.332 
378 1 0.0101037 -0.0120919 0.00329275 330.526 
1220 1 0.0128444 -0.012285 0.00367402 326.258 
4 1 0.0145348 -0.0124065 0.00221646 314.758 
336 1 0.015519 -0.0118383 0.00386221 321.729 
622 1 0.0176585 -0.0122282 0.00224094 313.017 
1077 1 0.0174136 -0.0112732 0.00416425 348.793 
736 1 0.0189909 -0.012447 0.00379728 367.802 
681 1 0.0203697 -0.0122626 0.00236006 309.964 
859 1 0.022665 -0.0115618 0.00410205 361.064 
806 1 0.0239103 -0.0124121 0.00278814 339.508 
1152 1 0.0260548 -0.0120702 0.00246214 337.756 
999 1 0.0279366 -0.0119296 0.00389669 343.94 
1316 1 0.0289735 -0.011821 0.0021899 334.943 
797 1 0.029953 -0.0124734 0.00395094 340.663 
1264 1 0.0315301 -0.0122716 0.00273395 312.536 
20 1 0.0336445 -0.0118753 0.00261523 350.209 
1336 1 0.0350723 -0.0118548 0.00401562 340.971 
1126 1 0.0354465 -0.0110244 0.00213404 338.577 
233 1 0.0359508 -0.0129117 0.00256269 314.087 
450 1 0.0369507 -0.0113847 0.00340195 348.93 
160 1 0.0392319 -0.0123737 0.00369314 364.224 
724 1 0.0409925 -0.0114286 0.00230715 346.246 
876 1 0.0419024 -0.0120667 0.00396995 361.777 
872 1 0.0425493 -0.0128203 0.00223337 311.736 
704 1 0.0449215 -0.0120423 0.00276611 320.639 
945 1 0.0469145 -0.0120959 0.00292509 329.887 
221 1 0.0489219 -0.0120878 0.00278378 331.559 
1245 1 0.000999993 -0.00928449 0.00395345 316.257 
744 1 0.00199872 -0.0103191 0.00256345 315.098 
635 1 0.00390569 -0.00984746 0.00293895 329.605 
136 1 0.00590224 -0.00974057 0.00289044 337.929 
418 1 0.00782929 -0.00974667 0.00235529 339.569 
1057 1 0.0112144 -0.00913699 0.00230648 339.631 
259 1 0.0102857 -0.010154 0.00396539 381.111 
1318 1 0.0125372 -0.0106075 0.00262928 355.295 
725 1 0.0121185 -0.00937428 0.00414712 412.823 
1205 1 0.0144017 -0.00990101 0.00247217 365.748 
422 1 0.0163222 -0.0103914 0.00273907 340.466 
924 1 0.0183927 -0.0103733 0.00267041 354.746 
395 1 0.0200087 -0.0107212 0.00379621 360.145 
1195 1 0.0205045 -0.00947314 0.00231414 338.202 
500 1 0.0225748 -0.0102262 0.0026161 349.794 
213 1 0.0246572 -0.0105577 0.00272838 340.901 
909 1 0.0263344 -0.0095128 0.00242 368.665 
740 1 0.0265318 -0.0105259 0.00413308 386.891 
521 1 0.0284821 -0.00929895 0.00254496 385.765 
997 1 0.0297075 -0.0105331 0.00353251 376.26 
445 1 0.0304806 -0.00911342 0.00235493 369.827 
1261 1 0.0322714 -0.0104207 0.00289093 321.186 
529 1 0.0340991 -0.00964259 0.00265859 361.959 
277 1 0.0355513 -0.00991304 0.00402491 390.814 
124 1 0.0367214 -0.00947922 0.002462 380.884 
960 1 0.0385169 -0.0102744 0.00284128 368.045 
510 1 0.0401572 -0.0106169 0.00393302 409.703 
533 1 0.0434256 -0.0107171 0.00268929 353.452 
552 1 0.044975 -0.00945352 0.0026339 391.075 
697 1 0.0458235 -0.0106606 0.00398403 403.364 
440 1 0.0475928 -0.00981798 0.00358448 375.516 
1021 1 0.0490805 -0.0100354 0.00226562 353.974 
95 1 0.0495155 -0.0105984 0.00413479 385.2 
564 1 0.00099999 -0.00828587 0.00219099 313.671 
1178 1 0.00294431 -0.00812116 0.0026297 319.987 
1005 1 0.00493772 -0.00799531 0.00273643 352.868 
284 1 0.00642498 -0.00807971 0.00407095 376.491 
27 1 0.00807073 -0.00718883 0.00266529 378.337 
344 1 0.00938651 -0.00866083 0.00298457 369.537 
455 1 0.0105623 -0.00708018 0.00263943 385.005 
636 1 0.0124312 -0.00770239 0.00298568 380.7 
1006 1 0.0139625 -0.00858986 0.00391714 415.186 
457 1 0.0154895 -0.00790228 0.00238508 320.359 
719 1 0.0174886 -0.00898444 0.00379015 400.636 
970 1 0.0173748 -0.00710733 0.00303941 378.491 
179 1 0.019032 -0.00819104 0.00275844 386.631 
138 1 0.0218439 -0.00861733 0.00355266 401.798 
818 1 0.0203462 -0.00738063 0.00402971 445.471 
246 1 0.0236322 -0.00852863 0.00260825 351.547 
52 1 0.0251761 -0.00874884 0.00386041 400.723 
788 1 0.0270982 -0.00816529 0.00368523 406.236 
988 1 0.028116 -0.00722336 0.00224411 391.697 
490 1 0.0294674 -0.00792801 0.00361716 425.072 
84 1 0.031579 -0.00882185 0.0040007 446.151 
574 1 0.0326897 -0.00787248 0.00263506 375.685 
1270 1 0.0346324 -0.00763772 0.00222151 368.239 
890 1 0.0361877 -0.00783246 0.00346367 434.243 
51 1 0.0380266 -0.00798128 0.00269142 416.707 
631 1 0.0399048 -0.00892272 0.00234495 341.718 
96 1 0.0393912 -0.00787195 0.00414942 492.298 
511 1 0.0410111 -0.00732224 0.00280826 364.533 
466 1 0.041122 -0.00887299 0.00410041 491.195 
1303 1 0.0421003 -0.00893786 0.00235721 389.883 
958 1 0.0436162 -0.00824038 0.00345969 436.358 
801 1 0.0466159 -0.00823817 0.00279014 396.873 
12 1 0.0485517 -0.00783185 0.00249456 368.175 
1322 1 0.00166231 -0.00652449 0.00286836 333.083 
1341 1 0.00396419 -0.00627271 0.00244508 344.264 
558 1 0.00510905 -0.00651309 0.00406821 394.864 
1255 1 0.00617585 -0.0056989 0.0025853 361.998 
56 1 0.00920399 -0.00554256 0.00273928 400.243 
1328 1 0.0124008 -0.00589791 0.00386145 464.438 
981 1 0.0141383 -0.00669754 0.00326137 392.174 
63 1 0.016488 -0.00538171 0.00255375 399.656 
942 1 0.0197866 -0.00626282 0.00246853 415.357 
1115 1 0.0187325 -0.00616465 0.0041654 480.539 
394 1 0.0204476 -0.00512481 0.00397452 420.471 
433 1 0.0221624 -0.00664013 0.00363846 460.467 
1004 1 0.0238057 -0.00623755 0.0025719 400.155 
957 1 0.0256907 -0.00562412 0.0028533 367.665 
436 1 0.0276169 -0.00518118 0.0025475 412.202 
769 1 0.0283152 -0.00634638 0.0040305 475.501 
141 1 0.0300155 -0.00540323 0.00326521 435.614 
59 1 0.0319484 -0.00601689 0.00271977 391.774 
104 1 0.0339034 -0.00541545 0.00219479 363.81 
489 1 0.0353605 -0.00612222 0.00408883 450.249 
1166 1 0.0366481 -0.00613693 0.00250276 331.353 
58 1 0.0378524 -0.00653306 0.00405974 463.997 
593 1 0.0392466 -0.00639765 0.00263055 390.09 
897 1 0.041185 -0.00533196 0.00253628 402.723 
1 1 0.0428685 -0.00661072 0.0025736 384.714 
759 1 0.0446992 -0.00576291 0.00298167 398.026 
396 1 0.0462771 -0.0066257 0.00392378 444.83 
1234 1 0.0482705 -0.00512445 0.00266 370.577 
3839 1 0.0498275 -0.00635211 0.00292208 400.798 
539 1 0.000999991 -0.00463755 0.00284091 322.174 
502 1 0.0028692 -0.00496099 0.00348449 342.331 
1090 1 0.00241806 -0.00326162 0.00253127 333.245 
666 1 0.00465322 -0.00440221 0.00271947 351.134 
102 1 0.00755571 -0.00396157 0.00273142 393.977 
263 1 0.00952789 -0.00357948 0.00294262 429.074 
659 1 0.0111076 -0.00492458 0.00267413 370.186 
61 1 0.0132155 -0.00474062 0.00244835 395.739 
701 1 0.014857 -0.00485586 0.003585 444.034 
968 1 0.0144952 -0.00320426 0.00249262 396.941 
949 1 0.0164875 -0.00336364 0.00242094 384.307 
815 1 0.0184075 -0.00482756 0.00266398 405.971 
941 1 0.0219151 -0.00493099 0.00262965 398.187 
793 1 0.0203805 -0.00364863 0.00260586 406.394 
371 1 0.0217992 -0.00348212 0.00400576 508.802 
437 1 0.0237219 -0.00436751 0.00327611 394.81 
232 1 0.0256883 -0.00374046 0.00360621 430.878 
1053 1 0.0274331 -0.0032043 0.00278871 388.389 
1113 1 0.0294168 -0.00367225 0.0024619 423.748 
239 1 0.0285386 -0.00436099 0.00412155 507.551 
125 1 0.0313661 -0.00411936 0.00247416 388.193 
503 1 0.0305202 -0.00320882 0.00406428 491.841 
685 1 0.0338027 -0.00315327 0.00216831 355.55 
1183 1 0.0329001 -0.00455259 0.00369441 386.302 
607 1 0.0355435 -0.00451931 0.00290681 411.311 
670 1 0.0344352 -0.0033252 0.00406679 492.879 
337 1 0.0372277 -0.00348272 0.00320522 420.172 
1129 1 0.0385362 -0.00458563 0.00217014 375.228 
731 1 0.0397943 -0.0039422 0.00358553 470.862 
571 1 0.0429846 -0.00447594 0.00270542 365.074 
971 1 0.0428698 -0.00304037 0.00409671 475.432 
708 1 0.0447234 -0.00389631 0.00371446 400.053 
886 1 0.0466457 -0.00466918 0.00373368 370.752 
1181 1 0.0478672 -0.0031672 0.00257964 368.144 
7 1 0.000999995 -0.00224926 0.00351349 335.474 
194 1 0.00444504 -0.00241389 0.00266259 374.256 
824 1 0.00663811 -0.002199 0.00250483 382.898 
850 1 0.00789364 -0.0024833 0.00403545 402.654 
520 1 0.00878403 -0.00181657 0.00236061 391.824 
1122 1 0.011365 -0.00295271 0.00246086 404.334 
1071 1 0.0110248 -0.00157098 0.0038662 459.73 
1326 1 0.0128951 -0.00189142 0.00319063 419.713 
592 1 0.0149515 -0.00128289 0.00280888 412.624 
251 1 0.0169801 -0.001426 0.00247444 378.336 
702 1 0.0161354 -0.00228746 0.00406953 376.05 
1149 1 0.0180125 -0.00280077 0.00358607 451.216 
379 1 0.0189674 -0.00158635 0.00231587 382.36 
1284 1 0.0210353 -0.00176092 0.00269408 430.928 
794 1 0.0227832 -0.00284188 0.00238658 417.394 
448 1 0.0225297 -0.0013417 0.0039554 485.81 
1114 1 0.0242126 -0.00239472 0.00371208 489.683 
1335 1 0.0270199 -0.00120829 0.00282432 468.533 
687 1 0.0291767 -0.00168212 0.00229324 417.37 
753 1 0.0287052 -0.00236798 0.00411184 514.674 
628 1 0.0312942 -0.00143576 0.00223057 355.132 
937 1 0.0323336 -0.00265285 0.00342984 431.75 
637 1 0.0355118 -0.00215918 0.00284971 410.038 
998 1 0.0373732 -0.001489 0.00314284 396.396 
128 1 0.0393168 -0.00208354 0.00264561 369.351 
871 1 0.0411969 -0.00260098 0.00308983 347.311 
992 1 0.0426257 -0.00120919 0.00294356 366.173 
587 1 0.0438385 -0.00269671 0.00238109 386.595 
710 1 0.0445866 -0.00189194 0.0040522 465.829 
512 1 0.0461727 -0.00207084 0.00270327 328.236 
21 1 0.0478069 -0.00170423 0.00394202 443.094 
1170 1 0.0495766 -0.00258666 0.00344025 398.96 
822 1 0.000999987 -0.000473589 0.00259319 325.468 
109 1 0.0024542 -0.000832872 0.00391839 370.81 
528 1 0.00578114 -0.000842966 0.00394346 442.053 
242 1 0.00411277 -0.000225061 0.00285187 352.43 
144 1 0.00763281 -0.000245222 0.00300108 390.256 
1192 1 0.00914761 -0.000927255 0.00411472 442.728 
419 1 0.00945075 0.000512878 0.0026542 392.185 
412 1 0.0112445 -0.000305026 0.0023172 336.543 
1076 1 0.0126516 8.42539e-06 0.00379379 451.156 
62 1 0.0149188 0.000712616 0.0026792 416.982 
296 1 0.0169126 0.000567618 0.00261911 412.514 
1125 1 0.0179476 -0.000535511 0.00398153 440.841 
229 1 0.0189022 0.000404401 0.0024965 409.026 
1121 1 0.0207436 0.000143193 0.00323189 434.654 
1269 1 0.0233602 0.000450973 0.00361969 489.28 
182 1 0.0248598 -0.000777839 0.00272881 374.249 
438 1 0.0259157 0.000919027 0.00280466 456.929 
1194 1 0.0286065 0.000232978 0.00237905 414.68 
896 1 0.0318096 -0.000830484 0.00406577 478.32 
1030 1 0.0305119 0.000242498 0.00298658 419.43 
334 1 0.033172 -0.000725086 0.00260031 322.706 
19 1 0.0356439 -0.00022773 0.00234772 409.432 
65 1 0.0377027 0.000305464 0.00232351 385.699 
1120 1 0.0390534 -0.000489579 0.00382456 448.264 
1079 1 0.0395763 0.00096548 0.00255594 383.176 
1268 1 0.0407291 -0.00066785 0.0026123 377.939 
267 1 0.0425149 0.000767667 0.00266122 367.407 
307 1 0.0436758 2.84904e-05 0.00411238 471.128 
640 1 0.0445885 -0.000664407 0.00247324 396.416 
1235 1 0.0459945 0.00043435 0.00337651 375.878 
559 1 0.0474154 -0.000541394 0.0023621 328.108 
70 1 0.0493083 -0.000516063 0.00336394 390.728 
777 1 0.000999995 0.00110825 0.00381703 324.108 
471 1 0.000999996 0.00219067 0.00213525 317.318 
1043 1 0.00259936 0.0010612 0.00261711 343.456 
1165 1 0.0043985 0.00192522 0.00248846 363.704 
1342 1 0.00615918 0.00122393 0.00312734 383.243 
948 1 0.00824989 0.00209418 0.00238418 353.496 
73 1 0.00954494 0.00198347 0.0040064 423.41 
505 1 0.0109079 0.00187772 0.00253671 345.901 
921 1 0.0128894 0.00162969 0.00264707 350.216 
698 1 0.0148031 0.00263621 0.00214408 389.704 
542 1 0.0161275 0.00214771 0.00356089 396.919 
202 1 0.0179548 0.00149021 0.00405531 473.841 
1312 1 0.0198177 0.00190183 0.00345535 457.628 
1100 1 0.0218928 0.00199069 0.0026682 431.198 
902 1 0.024654 0.0020511 0.00386609 475.925 
715 1 0.0275718 0.00203697 0.00271739 449.273 
209 1 0.0292263 0.00157551 0.00374179 475.609 
68 1 0.030945 0.00242399 0.00317064 413.128 
189 1 0.0323332 0.0010903 0.00262827 364.74 
122 1 0.0331342 0.00221269 0.00408336 416.252 
1112 1 0.0343195 0.0011875 0.00284081 378.763 
1259 1 0.0371473 0.00244187 0.00221728 405.49 
570 1 0.0366618 0.0011466 0.00380976 463.148 
1070 1 0.0392343 0.0028996 0.00293307 355.791 