ITEM: TIMESTEP
16300000
ITEM: NUMBER OF ATOMS
5000
ITEM: BOX BOUNDS mm mm mm
0 0.1
-0.015 0.015
0 0.3
ITEM: ATOMS id type x y z f_Temp[0] 
977 1 0.00102825 -0.014 0.000999993 301.403 
581 1 0.00280536 -0.013082 0.000999998 300 
980 1 0.00536401 -0.0139934 0.000999992 303.285 
1252 1 0.0073668 -0.0139976 0.000999998 300 
648 1 0.00943464 -0.014 0.000999991 305.918 
1049 1 0.0114353 -0.0139953 0.000999998 300 
585 1 0.0133901 -0.0135651 0.000999998 300 
453 1 0.0153494 -0.0139699 0.000999997 301.491 
812 1 0.0173493 -0.0139998 0.000999993 307.963 
1111 1 0.0195007 -0.0134438 0.000999984 308.156 
713 1 0.021422 -0.014 0.000999994 305.043 
1065 1 0.0234048 -0.014 0.00126756 302.71 
82 1 0.0265155 -0.0139931 0.000999994 308.587 
383 1 0.0285156 -0.014 0.000999992 306.903 
930 1 0.030521 -0.014 0.000999997 304.584 
936 1 0.0322405 -0.014 0.00202133 308.699 
1185 1 0.0365621 -0.014 0.000999997 301.864 
961 1 0.0387276 -0.014 0.00158109 308.376 
397 1 0.0415067 -0.014 0.000999998 304.872 
434 1 0.0453634 -0.0139995 0.000999989 303.09 
845 1 0.0473634 -0.013996 0.000999993 301.278 
69 1 0.0493634 -0.014 0.000999998 300 
775 1 0.00100002 -0.0113754 0.000999998 300 
100 1 0.0029795 -0.0110896 0.000999992 304.904 
914 1 0.00557519 -0.0112015 0.00100005 307.765 
80 1 0.00757517 -0.0111953 0.000999991 311.202 
451 1 0.00998402 -0.0120769 0.000999996 312.689 
796 1 0.00840292 -0.0126653 0.00207425 306.012 
693 1 0.0116631 -0.012314 0.00206038 322.489 
1317 1 0.0131863 -0.0115688 0.000999987 318.707 
915 1 0.0160944 -0.0121103 0.000999994 309.946 
410 1 0.0190455 -0.011496 0.000999996 309.358 
830 1 0.0224371 -0.0122702 0.000999998 300.535 
320 1 0.0247898 -0.0125822 0.000999992 310.667 
112 1 0.0274126 -0.0122056 0.000999996 313.084 
75 1 0.0305709 -0.0120006 0.000999993 312.15 
44 1 0.0325472 -0.012308 0.000999993 307.903 
903 1 0.0346614 -0.0124727 0.000999987 315.784 
501 1 0.0399655 -0.0125406 0.000999994 312.874 
606 1 0.0381813 -0.0121244 0.00200969 324.754 
895 1 0.0424953 -0.0112468 0.000999991 315.521 
98 1 0.0440827 -0.0124633 0.000999998 305.49 
591 1 0.0463607 -0.0121906 0.000999998 300 
260 1 0.0483399 -0.0113954 0.000999988 310.723 
341 1 0.00236835 -0.00912792 0.000999989 306.714 
781 1 0.00434315 -0.00962605 0.00099999 311.141 
163 1 0.00630249 -0.00922482 0.000999992 314.979 
180 1 0.00969329 -0.0104144 0.00207298 339.153 
657 1 0.0113778 -0.0106424 0.000999994 313.346 
479 1 0.0130888 -0.00957115 0.00099999 323.614 
1334 1 0.0156328 -0.00933789 0.000999989 330.162 
236 1 0.0173021 -0.0105161 0.00100003 323.77 
463 1 0.0189969 -0.0094543 0.000999987 327.965 
1058 1 0.020961 -0.0109208 0.000999997 307.756 
214 1 0.021988 -0.00920459 0.000999991 328.235 
48 1 0.0236592 -0.010687 0.000999996 317.89 
1001 1 0.0256579 -0.0107646 0.000999989 316.176 
157 1 0.0275721 -0.0101849 0.00099999 331.555 
154 1 0.0295703 -0.010269 0.000999998 329.213 
849 1 0.03169 -0.0101268 0.000999998 303.473 
986 1 0.0337356 -0.0106994 0.000999992 321.434 
352 1 0.0353603 -0.00937906 0.000999998 326.249 
391 1 0.037078 -0.0107965 0.00099999 324.318 
828 1 0.0380495 -0.00904828 0.000999991 336.029 
1302 1 0.0391669 -0.010707 0.000999988 322.761 
1153 1 0.0410033 -0.00991491 0.000999992 326.848 
1029 1 0.0435086 -0.00935559 0.000999995 320.639 
734 1 0.0450013 -0.0106867 0.000999997 307.902 
168 1 0.0467898 -0.0104128 0.001852 317.083 
673 1 0.0479253 -0.00900397 0.000999991 317.534 
230 1 0.00208414 -0.00710001 0.000999993 314.817 
962 1 0.00400567 -0.00765473 0.000999989 320.876 
829 1 0.00807393 -0.0082964 0.000999989 327.776 
409 1 0.0100683 -0.00814704 0.00100015 323.703 
524 1 0.0120481 -0.00786324 0.000999994 320.416 
1221 1 0.0140493 -0.00781586 0.000999998 303.728 
1092 1 0.0173393 -0.0086903 0.00181755 351.623 
461 1 0.016624 -0.00701102 0.000999992 327.123 
1062 1 0.0197951 -0.00762048 0.000999986 347.599 
790 1 0.0215614 -0.00748521 0.00192831 374.966 
200 1 0.0233297 -0.00737885 0.000999993 347.509 
602 1 0.0247258 -0.00899514 0.000999997 315.428 
546 1 0.0254076 -0.0074302 0.00204216 321.942 
1240 1 0.0269157 -0.00822994 0.000999998 307.73 
247 1 0.0292594 -0.00829331 0.00099999 342.762 
973 1 0.0315646 -0.00811889 0.00099999 329.933 
1319 1 0.0334732 -0.00871669 0.000999992 329.787 
947 1 0.0365133 -0.00779137 0.00138712 311.714 
238 1 0.0398083 -0.00744564 0.000999998 318.579 
162 1 0.0418494 -0.00748753 0.000999997 310.095 
367 1 0.0444121 -0.00769988 0.0016651 318.514 
1274 1 0.0459344 -0.00881346 0.000999986 330.492 
1074 1 0.0498509 -0.00837727 0.000999998 300 
28 1 0.0010002 -0.00541922 0.000999994 308.458 
956 1 0.00299485 -0.00525828 0.000999998 300 
134 1 0.00500411 -0.00536152 0.000999994 327.681 
825 1 0.00684751 -0.00671657 0.000999995 326.483 
976 1 0.00894151 -0.00649438 0.000999994 338.825 
169 1 0.0109715 -0.00601028 0.000999993 336.065 
556 1 0.0129962 -0.00610228 0.000999995 337.812 
421 1 0.0149261 -0.00609382 0.001525 341.869 
1217 1 0.0184323 -0.00615665 0.000999998 331.236 
1325 1 0.02106 -0.00573604 0.000999998 300 
496 1 0.0230199 -0.00528279 0.000999996 350.961 
639 1 0.024956 -0.005784 0.00099999 346.862 
1151 1 0.0269057 -0.0062297 0.000999984 347.125 
443 1 0.0289826 -0.00545961 0.000999998 300 
1231 1 0.0310307 -0.00545223 0.000999998 300 
146 1 0.0303193 -0.00698151 0.00207498 365.709 
1290 1 0.0330366 -0.00676492 0.000999997 319.547 
1075 1 0.0353259 -0.00621403 0.000999995 320.404 
618 1 0.038025 -0.00654034 0.000999998 304.623 
83 1 0.0399098 -0.00544822 0.000999985 339.457 
974 1 0.0424605 -0.00544572 0.000999991 335.858 
1289 1 0.0449382 -0.00588859 0.000999992 326.598 
772 1 0.0466402 -0.00609637 0.0020296 347.001 
530 1 0.0482999 -0.00652692 0.000999994 319.204 
283 1 0.00371076 -0.00338747 0.000999998 300 
750 1 0.00569468 -0.00311861 0.000999998 300.006 
234 1 0.00689912 -0.00471724 0.000999994 338.266 
1025 1 0.00808655 -0.00310775 0.000999998 300 
139 1 0.00957738 -0.00451695 0.000999998 300 
791 1 0.0119528 -0.0041857 0.000999985 351.83 
402 1 0.0153626 -0.004214 0.000999994 337.133 
1087 1 0.017357 -0.00447035 0.000999991 345.267 
519 1 0.0193899 -0.00431182 0.000999993 350.483 
275 1 0.0216938 -0.00378558 0.000999994 336.999 
142 1 0.0249492 -0.00393316 0.00175782 363.646 
90 1 0.0267754 -0.00423396 0.000999996 338.746 
492 1 0.032699 -0.00434362 0.000999993 327.505 
749 1 0.0350091 -0.00423928 0.000999994 331.142 
1187 1 0.0369358 -0.00484893 0.000999997 313.479 
175 1 0.0402006 -0.00358298 0.00166048 352.003 
1050 1 0.0420853 -0.00347573 0.000999995 319.803 
846 1 0.0439728 -0.00413701 0.000999988 327.466 
424 1 0.0456873 -0.00431841 0.00201368 329.996 
1243 1 0.0474114 -0.00430605 0.000999998 315.987 
3721 1 0.0493439 -0.00482097 0.000999988 314.119 
77 1 0.00106374 -0.00207202 0.000999998 300 
37 1 0.00269634 -0.00135299 0.00200246 337.392 
1108 1 0.00442621 -0.00130241 0.000999983 335.894 
385 1 0.0074663 -0.0011745 0.000999988 341.888 
89 1 0.0100509 -0.00255541 0.000999998 300 
318 1 0.0118586 -0.00167902 0.000999998 323.321 
32 1 0.0138228 -0.00205531 0.000999998 320.371 
964 1 0.0158217 -0.00212183 0.000999998 314.222 
1180 1 0.0177825 -0.00251614 0.000999993 332.943 
885 1 0.0201852 -0.00247261 0.000999997 339.104 
264 1 0.0220832 -0.00158202 0.000999986 361.532 
258 1 0.0241116 -0.00228266 0.001 367.873 
291 1 0.0258098 -0.00110755 0.000999998 325.104 
1052 1 0.0282802 -0.00291658 0.000999992 357.609 
486 1 0.0304223 -0.00274938 0.000999993 342.31 
401 1 0.0328101 -0.00186878 0.000999996 318.862 
91 1 0.0348112 -0.00186302 0.00099999 332.822 
1248 1 0.0364864 -0.00291987 0.00127711 320.646 
1196 1 0.0384654 -0.00283657 0.000999995 317.903 
351 1 0.0409167 -0.00183629 0.000999995 325.073 
1003 1 0.0429073 -0.00158977 0.000999997 317.22 
545 1 0.0452833 -0.00262575 0.000999997 320.362 
31 1 0.0472197 -0.00212533 0.000999991 314.19 
1027 1 0.0491105 -0.00283465 0.000999996 304.062 
620 1 0.00150677 0.000624044 0.000999984 317.23 
817 1 0.00371 0.000569571 0.000999998 300 
127 1 0.00591125 -0.000406584 0.00199601 369.413 
306 1 0.00756563 0.000823028 0.000999994 322.106 
167 1 0.00960301 -0.000600847 0.000999992 343.448 
721 1 0.0132144 -0.000384327 0.00191523 380.132 
33 1 0.0157861 -0.000111628 0.000999998 300 
522 1 0.0178029 -0.000348553 0.000999998 300 
1330 1 0.0201726 -0.000472074 0.000999998 300 
624 1 0.0239822 -0.000286865 0.000999988 354.768 
799 1 0.0222849 0.000162791 0.00195755 385.509 
644 1 0.0278053 -0.000973797 0.000999988 365.171 
181 1 0.0267603 0.000746288 0.000999994 357.839 
289 1 0.0300684 -0.000444246 0.000999989 344.866 
899 1 0.0320249 -2.93762e-05 0.000999997 315.603 
184 1 0.0341146 1.69014e-05 0.000999998 302.496 
1191 1 0.0369446 -0.000988204 0.000999998 307.036 
625 1 0.0395829 -0.000291107 0.000999998 311.808 
250 1 0.0417007 7.81933e-06 0.000999996 320.847 
1247 1 0.0440455 0.000574366 0.000999991 325.934 
518 1 0.045939 -0.000588995 0.000999992 327.389 
198 1 0.0476838 0.000898615 0.000999998 300 
527 1 0.0488465 -0.000852146 0.000999995 306.658 
904 1 0.0494914 0.00083641 0.00185608 321.764 
305 1 0.00264916 0.00226565 0.00100002 322.002 
408 1 0.00557638 0.00129512 0.000999993 340.095 
1037 1 0.00643218 0.00282586 0.00196146 358.665 
1054 1 0.00968458 0.00225442 0.000999996 319.029 
310 1 0.011896 0.00105164 0.000999998 306.765 
364 1 0.0129022 0.00293552 0.000999998 311.882 
392 1 0.0139525 0.00123354 0.000999991 340.108 
430 1 0.0169059 0.00174167 0.000999993 342.067 
723 1 0.0189961 0.00172788 0.000999992 337.769 
279 1 0.0209923 0.00135248 0.000999998 300 
1099 1 0.0248586 0.00295496 0.000999993 351.08 
1044 1 0.0241312 0.00141222 0.00204443 402.313 
1226 1 0.0268526 0.0027672 0.000999989 368.947 
474 1 0.0285332 0.00167963 0.000999992 343.89 
1175 1 0.0304799 0.00146998 0.0014079 353.883 
280 1 0.033244 0.00181831 0.000999998 307.22 
476 1 0.0350733 0.0024588 0.0014934 332.363 
735 1 0.0363974 0.00104339 0.000999985 347.144 
311 1 0.0384834 0.00158561 0.000999987 343.894 
562 1 0.0405308 0.00178272 0.000999989 332.82 
197 1 0.0425283 0.0018813 0.000999995 317.871 
615 1 0.0443907 0.00261031 0.000999986 327.476 
568 1 0.0458138 0.00132471 0.00156747 345.853 
1197 1 0.0497082 0.00263088 0.000999994 320.611 
366 1 0.00100063 0.00383724 0.000999997 305.072 
920 1 0.0043839 0.00326097 0.00099999 323.632 
1036 1 0.00644525 0.00457953 0.000999989 323.441 
314 1 0.0084474 0.00420472 0.000999998 300 
1224 1 0.0104826 0.00408961 0.000999992 330.8 
1124 1 0.0123036 0.0049164 0.000999992 337.038 
1286 1 0.0152051 0.00422662 0.000999983 347.036 
972 1 0.0186014 0.00369399 0.000999996 322.906 
493 1 0.0202753 0.0030119 0.00185588 383.402 
939 1 0.02075 0.00475605 0.000999988 357.89 
923 1 0.0220823 0.00307749 0.000999993 348.254 
241 1 0.0235323 0.00445514 0.00099999 358.724 
322 1 0.0254857 0.00479463 0.00147149 365.076 
485 1 0.0274261 0.00468323 0.000999995 344.702 
814 1 0.0294225 0.00456453 0.000999989 349.837 
1229 1 0.031651 0.00303909 0.000999991 340.318 
879 1 0.0329311 0.00472595 0.000999998 300 
1019 1 0.0354244 0.00436559 0.000999992 335.19 
26 1 0.0374497 0.00408385 0.000999998 300 
946 1 0.0393304 0.00340355 0.000999998 307.636 
1314 1 0.041438 0.0035651 0.000999997 319.765 
300 1 0.0429164 0.00497018 0.000999991 325.238 
757 1 0.0450352 0.00455741 0.000999996 317.023 
121 1 0.0464429 0.00313648 0.000999998 300 
2899 1 0.0491937 0.0045982 0.000999981 328.808 
235 1 0.0481355 0.00327053 0.00205706 350.522 
852 1 0.00147344 0.00578054 0.000999994 303.31 
143 1 0.00359123 0.00509717 0.000999997 317.22 
712 1 0.00611097 0.00655139 0.000999995 314.72 
857 1 0.00765647 0.00583318 0.0020467 329.549 
156 1 0.0101029 0.00606725 0.000999991 328.25 
733 1 0.0125017 0.00690655 0.000999988 335.214 
761 1 0.0142905 0.00601063 0.000999998 300 
1306 1 0.0170989 0.00501409 0.000999991 333.377 
1285 1 0.0165014 0.00696669 0.000999998 305.622 
237 1 0.0189814 0.0056897 0.000999997 329.039 
621 1 0.0222928 0.00602882 0.00099999 345.034 
1134 1 0.0242725 0.00631312 0.000999989 348.512 
1154 1 0.028986 0.0067722 0.000999991 349.078 
332 1 0.0310772 0.00569306 0.000999998 300 
404 1 0.0326452 0.00696578 0.000999994 329.808 
1299 1 0.0344553 0.0061151 0.000999994 327.523 
1088 1 0.0366774 0.00592881 0.000999988 357.992 
54 1 0.0390828 0.00538836 0.000999994 325.578 
176 1 0.0410339 0.00582837 0.000999992 320.259 
544 1 0.0455179 0.00651285 0.000999998 300 
469 1 0.0472716 0.00515104 0.000999995 311.402 
14 1 0.048698 0.00655308 0.000999996 314.397 
741 1 0.000999996 0.00772368 0.00100003 302.779 
187 1 0.00278473 0.00862649 0.000999991 305.603 
540 1 0.00401709 0.00705129 0.000999987 311.785 
193 1 0.00477587 0.00895969 0.000999998 300 
253 1 0.0068207 0.00842122 0.000999996 310.287 
959 1 0.00850773 0.00730957 0.000999992 317.084 
328 1 0.0114072 0.00885238 0.000999998 300 
718 1 0.0132987 0.00844915 0.0019926 335.384 
978 1 0.0151909 0.00848408 0.000999991 330.334 
488 1 0.0171399 0.00893312 0.000999991 325.779 
847 1 0.0186891 0.00766823 0.000999992 331.388 
473 1 0.0206943 0.00740139 0.000999998 300 
854 1 0.0226507 0.00799697 0.000999991 349.071 
207 1 0.0263751 0.00739621 0.000999998 300 
513 1 0.0293352 0.00896057 0.00151575 325.33 
651 1 0.0307733 0.00766986 0.000999989 333.006 
1298 1 0.0326488 0.00875108 0.00190147 322.487 
1244 1 0.0353883 0.00770327 0.00177925 357.14 
611 1 0.0372176 0.00791835 0.000999986 332.258 
730 1 0.0393584 0.00754866 0.000999997 320.336 
835 1 0.0417267 0.00744182 0.00195747 357.637 
110 1 0.0436805 0.00766014 0.000999996 317.947 
428 1 0.0469194 0.00795518 0.000999997 301.793 
174 1 0.0497579 0.00825521 0.000999987 321.31 
205 1 0.00100021 0.00991911 0.000999985 301.767 
177 1 0.00272024 0.0104073 0.001908 303.306 
674 1 0.00638342 0.0103728 0.000999989 307.577 
79 1 0.00942032 0.00908922 0.000999998 313.138 
1320 1 0.0104938 0.0103921 0.00207241 321.257 
779 1 0.012119 0.0108494 0.00100017 314.888 
292 1 0.0139551 0.0100566 0.000999991 321.075 
11 1 0.015904 0.0105056 0.00099999 320.256 
50 1 0.0188973 0.00950435 0.00176508 317.511 
1042 1 0.0207436 0.00942882 0.000999998 304.309 
694 1 0.0226224 0.0101149 0.000999989 332.637 
147 1 0.0240051 0.00907428 0.00200252 365.649 
983 1 0.0256274 0.00967679 0.000999989 328.675 
798 1 0.0278229 0.0101635 0.000999996 310.077 
966 1 0.0311269 0.00968438 0.000999995 312.42 
1186 1 0.033815 0.0102344 0.000999995 317.065 
1091 1 0.035782 0.00950263 0.000999993 328.547 
93 1 0.0382867 0.00960858 0.000999998 320.764 
1160 1 0.0399631 0.0106994 0.000999988 308.396 
575 1 0.0411762 0.00910919 0.00099999 321.422 
985 1 0.04312 0.00957997 0.000999996 308.719 
359 1 0.0453271 0.00941899 0.000999995 312.704 
969 1 0.0472618 0.00992566 0.000999998 303.78 
78 1 0.0492059 0.0103951 0.000999992 303.234 
363 1 0.000999994 0.0125472 0.000999995 300.357 
811 1 0.00296408 0.0122886 0.00127469 301.377 
743 1 0.00449491 0.0110312 0.000999993 302.533 
1251 1 0.00600936 0.0123375 0.000999995 302.206 
72 1 0.009055 0.0112752 0.000999994 307.19 
1313 1 0.0110293 0.0125265 0.00099999 306.716 
654 1 0.0139151 0.0120596 0.000999989 314.407 
271 1 0.0178306 0.011047 0.000999998 300 
15 1 0.0191506 0.0123316 0.00178965 312.645 
215 1 0.0208644 0.0116686 0.00099999 315.114 
420 1 0.0226323 0.0118976 0.00190669 319.19 
449 1 0.0244554 0.012149 0.000999998 305.481 
39 1 0.0263672 0.0115349 0.000999992 312.327 
188 1 0.0295985 0.0111181 0.000999991 318.279 
425 1 0.028129 0.0124814 0.000999992 305.431 
1095 1 0.0312193 0.01229 0.000999998 300.001 
1227 1 0.033219 0.0122468 0.000999995 307.986 
119 1 0.0353448 0.012291 0.000999998 300 
650 1 0.0369685 0.0111127 0.000999989 316.4 
1138 1 0.0386186 0.0122428 0.000999992 309.348 
979 1 0.0405124 0.0124274 0.00184388 313.744 
316 1 0.0424183 0.0117034 0.000999998 301.765 
1297 1 0.0443447 0.0111611 0.00099999 310.064 
1206 1 0.046545 0.0118446 0.000999993 305.551 
380 1 0.0484365 0.0121497 0.00157368 301.526 
347 1 0.00209295 0.014 0.00183359 300.334 
309 1 0.00396196 0.014 0.000999998 300.517 
1130 1 0.00566062 0.014 0.00205571 301.584 
807 1 0.00735927 0.014 0.000999991 301.235 
114 1 0.00931258 0.0135525 0.000999993 302.388 
240 1 0.0123816 0.014 0.000999997 303.221 
672 1 0.0144052 0.014 0.000999998 302.265 
729 1 0.0161846 0.014 0.00191321 309.224 
758 1 0.0179409 0.0137147 0.000999996 305.421 
1038 1 0.0199206 0.014 0.000999993 304.75 
81 1 0.0217812 0.0139926 0.00173331 309.195 
676 1 0.0236419 0.0139761 0.000999994 304.515 
534 1 0.0264784 0.0137749 0.000999998 300 
526 1 0.0299137 0.014 0.000999997 301.155 
101 1 0.0322566 0.014 0.000999994 304.424 
1304 1 0.0342566 0.014 0.00099999 305.972 
1171 1 0.0370722 0.0139078 0.000999998 300 
442 1 0.0396097 0.014 0.000999989 306.318 
348 1 0.0423201 0.0137122 0.000999998 300 
626 1 0.0443208 0.014 0.000999994 301.417 
935 1 0.0466535 0.0139467 0.000999998 300 
766 1 0.0489339 0.014 0.000999995 300.829 
728 1 0.00392052 -0.014 0.00238429 304.027 
1249 1 0.00256444 -0.0132265 0.00363435 310.297 
929 1 0.00450257 -0.0131416 0.00412055 317.84 
1137 1 0.00634469 -0.014 0.00274303 308.756 
1097 1 0.0078871 -0.0133954 0.0038635 326.841 
598 1 0.0095839 -0.014 0.0029944 316.943 
1056 1 0.0115791 -0.014 0.0031329 318.554 
747 1 0.0135702 -0.014 0.00294461 310.047 
1337 1 0.0162623 -0.0135725 0.00273454 305.364 
789 1 0.0184969 -0.014 0.00263796 319.934 
894 1 0.0203583 -0.014 0.00336963 320.255 
507 1 0.0220847 -0.0132262 0.00272104 317.016 
170 1 0.0250702 -0.014 0.00238244 311.117 
993 1 0.0240141 -0.0139722 0.00408059 332.707 
1048 1 0.0275175 -0.0134232 0.00263438 320.932 
1267 1 0.0262053 -0.014 0.00402915 307.792 
43 1 0.0295 -0.014 0.00274091 312.725 
1169 1 0.0312288 -0.014 0.00374657 328.884 
1008 1 0.0331407 -0.0134146 0.0037886 317.923 
1168 1 0.0342309 -0.014 0.00221734 310.257 
288 1 0.0350354 -0.014 0.00404837 318.389 
158 1 0.0375146 -0.014 0.00317125 303.426 
47 1 0.0406544 -0.0133617 0.00269294 320.761 
274 1 0.0425983 -0.014 0.00386091 316.908 
652 1 0.0441287 -0.014 0.00257328 308.541 
689 1 0.0463276 -0.014 0.00275222 304.293 
1184 1 0.0483371 -0.014 0.00274697 304.042 
1026 1 0.000999991 -0.0126891 0.00251021 304.369 
261 1 0.000999995 -0.011326 0.00397369 308.933 
1343 1 0.00301409 -0.0113076 0.00397475 322.316 
87 1 0.00423913 -0.0120312 0.0022356 304.518 
355 1 0.00504244 -0.0112267 0.00391614 331.289 
1208 1 0.00656471 -0.0120234 0.00253146 306.471 
22 1 0.00843274 -0.011079 0.00371936 342.172 
378 1 0.0101037 -0.0120919 0.00329275 325.125 
1220 1 0.0128444 -0.012285 0.00367402 321.365 
4 1 0.0145348 -0.0124065 0.00221646 311.8 
336 1 0.015519 -0.0118383 0.00386221 316.625 
622 1 0.0176585 -0.0122282 0.00224094 310.487 
1077 1 0.0174136 -0.0112732 0.00416425 341.279 
736 1 0.0189909 -0.012447 0.00379728 363.582 
681 1 0.0203697 -0.0122626 0.00236006 307.249 
859 1 0.022665 -0.0115618 0.00410205 353.813 
806 1 0.0239103 -0.0124121 0.00278814 333.241 
1152 1 0.0260548 -0.0120702 0.00246214 331.842 
999 1 0.0279366 -0.0119296 0.00389669 334.168 
1316 1 0.0289735 -0.011821 0.0021899 326.953 
797 1 0.029953 -0.0124734 0.00395094 330.986 
1264 1 0.0315301 -0.0122716 0.00273395 307.9 
20 1 0.0336445 -0.0118753 0.00261523 341.079 
1336 1 0.0350723 -0.0118548 0.00401562 329.026 
1126 1 0.0354465 -0.0110244 0.00213404 328.775 
233 1 0.0359508 -0.0129117 0.00256269 308.31 
450 1 0.0369507 -0.0113847 0.00340195 336.45 
160 1 0.0392319 -0.0123737 0.00369314 351.496 
724 1 0.0409925 -0.0114286 0.00230715 335.143 
876 1 0.0419024 -0.0120667 0.00396995 345.395 
872 1 0.0425493 -0.0128203 0.00223337 305.981 
704 1 0.0449215 -0.0120423 0.00276611 309.514 
945 1 0.0469145 -0.0120959 0.00292509 316.236 
221 1 0.0489219 -0.0120878 0.00278378 318.334 
1245 1 0.000999993 -0.00928449 0.00395345 314.578 
744 1 0.00199872 -0.0103191 0.00256345 312.973 
635 1 0.00390569 -0.00984746 0.00293895 326.114 
136 1 0.00590224 -0.00974057 0.00289044 332.992 
418 1 0.00782929 -0.00974667 0.00235529 334.259 
1057 1 0.0112144 -0.00913699 0.00230648 332.946 
259 1 0.0102857 -0.010154 0.00396539 373.267 
1318 1 0.0125372 -0.0106075 0.00262928 351.149 
725 1 0.0121185 -0.00937428 0.00414712 408.884 
1205 1 0.0144017 -0.00990101 0.00247217 361.82 
422 1 0.0163222 -0.0103914 0.00273907 334.826 
924 1 0.0183927 -0.0103733 0.00267041 347.42 
395 1 0.0200087 -0.0107212 0.00379621 351.363 
1195 1 0.0205045 -0.00947314 0.00231414 330.822 
500 1 0.0225748 -0.0102262 0.0026161 342.555 
213 1 0.0246572 -0.0105577 0.00272838 332.339 
909 1 0.0263344 -0.0095128 0.00242 358.961 
740 1 0.0265318 -0.0105259 0.00413308 376.283 
521 1 0.0284821 -0.00929895 0.00254496 373.346 
997 1 0.0297075 -0.0105331 0.00353251 364.96 
445 1 0.0304806 -0.00911342 0.00235493 360.429 
1261 1 0.0322714 -0.0104207 0.00289093 315.013 
529 1 0.0340991 -0.00964259 0.00265859 352.67 
277 1 0.0355513 -0.00991304 0.00402491 374.322 
124 1 0.0367214 -0.00947922 0.002462 366.145 
960 1 0.0385169 -0.0102744 0.00284128 355.861 
510 1 0.0401572 -0.0106169 0.00393302 399.229 
533 1 0.0434256 -0.0107171 0.00268929 335.116 
552 1 0.044975 -0.00945352 0.0026339 369.468 
697 1 0.0458235 -0.0106606 0.00398403 381.331 
440 1 0.0475928 -0.00981798 0.00358448 352.256 
1021 1 0.0490805 -0.0100354 0.00226562 333.139 
95 1 0.0495155 -0.0105984 0.00413479 356.531 
564 1 0.00099999 -0.00828587 0.00219099 312.113 
1178 1 0.00294431 -0.00812116 0.0026297 316.724 
1005 1 0.00493772 -0.00799531 0.00273643 349.159 
284 1 0.00642498 -0.00807971 0.00407095 370.52 
27 1 0.00807073 -0.00718883 0.00266529 373.557 
344 1 0.00938651 -0.00866083 0.00298457 362.325 
455 1 0.0105623 -0.00708018 0.00263943 378.702 
636 1 0.0124312 -0.00770239 0.00298568 372.699 
1006 1 0.0139625 -0.00858986 0.00391714 409.878 
457 1 0.0154895 -0.00790228 0.00238508 316.209 
719 1 0.0174886 -0.00898444 0.00379015 393.96 
970 1 0.0173748 -0.00710733 0.00303941 367.887 
179 1 0.019032 -0.00819104 0.00275844 378.98 
138 1 0.0218439 -0.00861733 0.00355266 394.02 
818 1 0.0203462 -0.00738063 0.00402971 440.645 
246 1 0.0236322 -0.00852863 0.00260825 343.688 
52 1 0.0251761 -0.00874884 0.00386041 392.535 
788 1 0.0270982 -0.00816529 0.00368523 395.235 
988 1 0.028116 -0.00722336 0.00224411 382.61 
490 1 0.0294674 -0.00792801 0.00361716 408.465 
84 1 0.031579 -0.00882185 0.0040007 436.21 
574 1 0.0326897 -0.00787248 0.00263506 360.102 
1270 1 0.0346324 -0.00763772 0.00222151 353.937 
890 1 0.0361877 -0.00783246 0.00346367 417.307 
51 1 0.0380266 -0.00798128 0.00269142 398.602 
631 1 0.0399048 -0.00892272 0.00234495 328.976 
96 1 0.0393912 -0.00787195 0.00414942 475.402 
511 1 0.0410111 -0.00732224 0.00280826 344.593 
466 1 0.041122 -0.00887299 0.00410041 477.531 
1303 1 0.0421003 -0.00893786 0.00235721 373.623 
958 1 0.0436162 -0.00824038 0.00345969 418.07 
801 1 0.0466159 -0.00823817 0.00279014 371.896 
12 1 0.0485517 -0.00783185 0.00249456 342.731 
1322 1 0.00166231 -0.00652449 0.00286836 330.953 
1341 1 0.00396419 -0.00627271 0.00244508 340.237 
558 1 0.00510905 -0.00651309 0.00406821 394.088 
1255 1 0.00617585 -0.0056989 0.0025853 358.363 
56 1 0.00920399 -0.00554256 0.00273928 395.982 
1328 1 0.0124008 -0.00589791 0.00386145 461.44 
981 1 0.0141383 -0.00669754 0.00326137 384.517 
63 1 0.016488 -0.00538171 0.00255375 389.623 
942 1 0.0197866 -0.00626282 0.00246853 405.784 
1115 1 0.0187325 -0.00616465 0.0041654 471.677 
394 1 0.0204476 -0.00512481 0.00397452 405.506 
433 1 0.0221624 -0.00664013 0.00363846 457.587 
1004 1 0.0238057 -0.00623755 0.0025719 394.007 
957 1 0.0256907 -0.00562412 0.0028533 355.837 
436 1 0.0276169 -0.00518118 0.0025475 402.111 
769 1 0.0283152 -0.00634638 0.0040305 467.539 
141 1 0.0300155 -0.00540323 0.00326521 417.304 
59 1 0.0319484 -0.00601689 0.00271977 372.172 
104 1 0.0339034 -0.00541545 0.00219479 345.088 
489 1 0.0353605 -0.00612222 0.00408883 429.847 
1166 1 0.0366481 -0.00613693 0.00250276 320.147 
58 1 0.0378524 -0.00653306 0.00405974 442.631 
593 1 0.0392466 -0.00639765 0.00263055 369.761 
897 1 0.041185 -0.00533196 0.00253628 385.962 
1 1 0.0428685 -0.00661072 0.0025736 362.653 
759 1 0.0446992 -0.00576291 0.00298167 375.54 
396 1 0.0462771 -0.0066257 0.00392378 423.618 
1234 1 0.0482705 -0.00512445 0.00266 343.726 
3839 1 0.0498275 -0.00635211 0.00292208 368.119 
539 1 0.000999991 -0.00463755 0.00284091 320.443 
502 1 0.0028692 -0.00496099 0.00348449 336.614 
1090 1 0.00241806 -0.00326162 0.00253127 329.223 
666 1 0.00465322 -0.00440221 0.00271947 344.046 
102 1 0.00755571 -0.00396157 0.00273142 386.906 
263 1 0.0095279 -0.00357948 0.00294262 424.536 
659 1 0.0111076 -0.00492458 0.00267413 358.443 
61 1 0.0132155 -0.00474062 0.00244835 388.829 
701 1 0.014857 -0.00485586 0.003585 435.729 
968 1 0.0144952 -0.00320426 0.00249262 386.821 
949 1 0.0164875 -0.00336364 0.00242094 371.985 
815 1 0.0184075 -0.00482756 0.00266398 395.68 
941 1 0.0219151 -0.00493099 0.00262965 386.302 
793 1 0.0203805 -0.00364863 0.00260586 394.506 
371 1 0.0217992 -0.00348212 0.00400576 504.839 
437 1 0.0237219 -0.00436751 0.00327611 381.898 
232 1 0.0256883 -0.00374046 0.00360621 413.731 
1053 1 0.0274331 -0.0032043 0.00278871 371.657 
1113 1 0.0294168 -0.00367225 0.0024619 410.04 
239 1 0.0285386 -0.00436099 0.00412155 501.55 
125 1 0.0313661 -0.00411936 0.00247416 370.175 
503 1 0.0305202 -0.00320882 0.00406428 473.885 
685 1 0.0338027 -0.00315327 0.00216831 342.249 
1183 1 0.0329001 -0.00455259 0.00369441 363.768 
607 1 0.0355435 -0.00451931 0.00290681 391.134 
670 1 0.0344352 -0.0033252 0.00406679 478.834 
337 1 0.0372277 -0.00348272 0.00320522 396.709 
1129 1 0.0385362 -0.00458563 0.00217014 355.052 
731 1 0.0397943 -0.0039422 0.00358553 453.757 
571 1 0.0429846 -0.00447594 0.00270542 344.917 
971 1 0.0428698 -0.00304037 0.00409671 449.956 
708 1 0.0447234 -0.00389631 0.00371446 369.064 
886 1 0.0466457 -0.00466918 0.00373368 344.035 
1181 1 0.0478672 -0.0031672 0.00257964 342.163 
7 1 0.000999995 -0.00224926 0.00351349 334.934 
194 1 0.00444504 -0.00241389 0.00266259 369.577 
824 1 0.00663811 -0.002199 0.00250483 373.662 
850 1 0.00789365 -0.0024833 0.00403545 391.423 
520 1 0.00878403 -0.00181657 0.00236061 386.099 
1122 1 0.011365 -0.00295271 0.00246086 395.56 
1071 1 0.0110248 -0.00157098 0.0038662 451.312 
1326 1 0.0128951 -0.00189142 0.00319063 408.091 
592 1 0.0149515 -0.00128289 0.00280888 398.304 
251 1 0.0169801 -0.001426 0.00247444 363.434 
702 1 0.0161354 -0.00228746 0.00406953 358.357 
1149 1 0.0180125 -0.00280077 0.00358607 441.327 
379 1 0.0189674 -0.00158635 0.00231587 371.975 
1284 1 0.0210353 -0.00176092 0.00269408 417.926 
794 1 0.0227832 -0.00284188 0.00238658 407.907 
448 1 0.0225297 -0.0013417 0.0039554 472.175 
1114 1 0.0242126 -0.00239472 0.00371208 480.183 
1335 1 0.0270199 -0.00120829 0.00282432 460.325 
687 1 0.0291767 -0.00168212 0.00229324 406.842 
753 1 0.0287052 -0.00236798 0.00411184 506.393 
628 1 0.0312942 -0.00143576 0.00223057 342.926 
937 1 0.0323336 -0.00265285 0.00342984 412.315 
637 1 0.0355118 -0.00215918 0.00284971 393.082 
998 1 0.0373732 -0.001489 0.00314284 372.35 
128 1 0.0393168 -0.00208354 0.00264561 350.068 
871 1 0.0411969 -0.00260098 0.00308983 327.751 
992 1 0.0426257 -0.0012092 0.00294356 342.875 
587 1 0.0438385 -0.00269671 0.00238109 365.004 
710 1 0.0445866 -0.00189194 0.0040522 441.267 
512 1 0.0461727 -0.00207084 0.00270327 313.39 
21 1 0.0478069 -0.00170423 0.00394202 402.798 
1170 1 0.0495766 -0.00258666 0.00344025 372.267 
822 1 0.000999987 -0.000473589 0.00259319 324.034 
109 1 0.0024542 -0.000832872 0.00391839 370.523 
528 1 0.00578114 -0.000842966 0.00394346 445.555 
242 1 0.00411277 -0.000225061 0.00285187 347.271 
144 1 0.00763281 -0.000245222 0.00300108 381.959 
1192 1 0.00914761 -0.000927255 0.00411472 435.893 
419 1 0.00945075 0.000512878 0.0026542 383.277 
412 1 0.0112445 -0.000305026 0.0023172 329.311 
1076 1 0.0126516 8.42543e-06 0.00379379 436.453 
62 1 0.0149188 0.000712616 0.0026792 403.014 
296 1 0.0169126 0.000567618 0.00261911 398.992 
1125 1 0.0179476 -0.000535511 0.00398153 425.002 
229 1 0.0189022 0.000404401 0.0024965 395.927 
1121 1 0.0207436 0.000143193 0.00323189 419.599 
1269 1 0.0233602 0.000450973 0.00361969 479.259 
182 1 0.0248598 -0.000777839 0.00272881 361.692 
438 1 0.0259157 0.000919027 0.00280466 445.537 
1194 1 0.0286065 0.000232978 0.00237905 402.873 
896 1 0.0318096 -0.000830484 0.00406577 461.001 
1030 1 0.0305119 0.000242498 0.00298658 402.727 
334 1 0.033172 -0.000725086 0.00260031 313.846 
19 1 0.0356439 -0.00022773 0.00234772 392.436 
65 1 0.0377027 0.000305464 0.00232351 364.299 
1120 1 0.0390534 -0.000489579 0.00382456 424.396 
1079 1 0.0395763 0.00096548 0.00255594 361.503 
1268 1 0.0407291 -0.00066785 0.0026123 356.134 
267 1 0.0425149 0.000767667 0.00266122 344.832 
307 1 0.0436758 2.84904e-05 0.00411238 450.947 
640 1 0.0445885 -0.000664407 0.00247324 374.243 
1235 1 0.0459945 0.000434349 0.00337651 349.831 
559 1 0.0474154 -0.000541395 0.0023621 313.603 
70 1 0.0493083 -0.000516063 0.00336394 353.147 
777 1 0.000999995 0.00110825 0.00381703 322.178 
471 1 0.000999996 0.00219067 0.00213525 315.739 
1043 1 0.00259936 0.0010612 0.00261711 339.906 
1165 1 0.0043985 0.00192522 0.00248846 360.604 
1342 1 0.00615918 0.00122393 0.00312734 377.284 
948 1 0.00824989 0.00209418 0.00238418 345.371 
73 1 0.00954494 0.00198347 0.0040064 414.166 
505 1 0.0109079 0.00187772 0.00253671 336.063 
921 1 0.0128894 0.00162969 0.00264707 338.406 
698 1 0.0148031 0.00263621 0.00214408 379.41 
542 1 0.0161275 0.00214771 0.00356089 383.236 
202 1 0.0179548 0.00149021 0.00405531 462.394 
1312 1 0.0198177 0.00190183 0.00345535 446.004 
1100 1 0.0218928 0.00199069 0.0026682 420.087 
902 1 0.024654 0.0020511 0.00386609 466.711 
715 1 0.0275718 0.00203697 0.00271739 435.384 
209 1 0.0292263 0.00157551 0.00374179 459.755 
68 1 0.030945 0.00242399 0.00317064 393.818 
189 1 0.0323332 0.0010903 0.00262827 347.499 
122 1 0.0331342 0.00221269 0.00408336 391.801 
1112 1 0.0343195 0.0011875 0.00284081 358.67 
1259 1 0.0371473 0.00244187 0.00221728 388.168 
570 1 0.0366618 0.0011466 0.00380976 436.628 
1070 1 0.0392343 0.0028996 0.00293307 336.611 