ITEM: TIMESTEP
17700000
ITEM: NUMBER OF ATOMS
5000
ITEM: BOX BOUNDS mm mm mm
0 0.1
-0.015 0.015
0 0.3
ITEM: ATOMS id type x y z f_Temp[0] 
977 1 0.00102825 -0.014 0.000999993 301.588 
581 1 0.00280537 -0.013082 0.000999998 300 
980 1 0.00536401 -0.0139934 0.000999992 303.673 
1252 1 0.00736681 -0.0139976 0.000999998 300 
648 1 0.00943464 -0.014 0.000999991 306.471 
1049 1 0.0114353 -0.0139953 0.000999998 300 
585 1 0.0133901 -0.013565 0.000999998 300 
453 1 0.0153494 -0.0139699 0.000999997 301.772 
812 1 0.0173493 -0.0139998 0.000999993 308.463 
1111 1 0.0195007 -0.0134438 0.000999984 308.696 
713 1 0.021422 -0.014 0.000999994 305.723 
1065 1 0.0234048 -0.014 0.00126756 303.188 
82 1 0.0265155 -0.0139931 0.000999994 309.83 
383 1 0.0285156 -0.014 0.000999992 307.893 
930 1 0.030521 -0.014 0.000999997 305.365 
936 1 0.0322405 -0.014 0.00202133 310.101 
1185 1 0.0365621 -0.014 0.000999997 302.541 
961 1 0.0387276 -0.014 0.00158109 310.37 
397 1 0.0415067 -0.014 0.000999998 306.41 
434 1 0.0453634 -0.0139995 0.000999989 304.437 
845 1 0.0473634 -0.013996 0.000999993 302.073 
69 1 0.0493634 -0.014 0.000999998 300 
775 1 0.00100002 -0.0113754 0.000999998 300 
100 1 0.0029795 -0.0110896 0.000999992 305.427 
914 1 0.00557519 -0.0112015 0.00100005 308.732 
80 1 0.00757517 -0.0111953 0.000999991 312.26 
451 1 0.00998402 -0.0120769 0.000999996 314.007 
796 1 0.00840292 -0.0126653 0.00207425 306.918 
693 1 0.0116631 -0.012314 0.00206038 324.119 
1317 1 0.0131863 -0.0115688 0.000999987 319.817 
915 1 0.0160944 -0.0121103 0.000999994 311.048 
410 1 0.0190455 -0.011496 0.000999996 310.43 
830 1 0.0224371 -0.0122702 0.000999998 300.679 
320 1 0.0247898 -0.0125822 0.000999992 311.88 
112 1 0.0274126 -0.0122056 0.000999996 314.963 
75 1 0.0305709 -0.0120006 0.000999993 313.824 
44 1 0.0325472 -0.012308 0.000999993 309.202 
903 1 0.0346614 -0.0124727 0.000999987 318.11 
501 1 0.0399655 -0.0125406 0.000999994 315.401 
606 1 0.0381813 -0.0121244 0.00200969 329.112 
895 1 0.0424953 -0.0112468 0.000999991 319.076 
98 1 0.0440827 -0.0124633 0.000999998 307.725 
591 1 0.0463614 -0.0121901 0.000999998 300 
260 1 0.0483399 -0.0113954 0.000999988 314.9 
341 1 0.00236835 -0.00912792 0.000999989 307.253 
781 1 0.00434315 -0.00962605 0.00099999 312.021 
163 1 0.00630249 -0.00922482 0.000999992 316.078 
180 1 0.00969329 -0.0104144 0.00207298 342.168 
657 1 0.0113778 -0.0106424 0.000999994 314.712 
479 1 0.0130888 -0.00957115 0.00099999 324.715 
1334 1 0.0156328 -0.00933789 0.000999989 331.662 
236 1 0.0173021 -0.0105161 0.00100003 325.834 
463 1 0.0189969 -0.0094543 0.000999987 330.008 
1058 1 0.020961 -0.0109208 0.000999997 308.726 
214 1 0.021988 -0.00920459 0.000999991 330.317 
48 1 0.0236592 -0.010687 0.000999996 320.164 
1001 1 0.0256579 -0.0107646 0.000999989 317.938 
157 1 0.0275721 -0.0101849 0.00099999 334.45 
154 1 0.0295703 -0.010269 0.000999998 332.021 
849 1 0.03169 -0.0101269 0.000999998 304.378 
986 1 0.0337356 -0.0106994 0.000999992 324.001 
352 1 0.0353603 -0.00937906 0.000999998 330.381 
391 1 0.037078 -0.0107965 0.00099999 328.079 
828 1 0.0380495 -0.00904828 0.000999991 340.497 
1302 1 0.0391669 -0.010707 0.000999988 326.19 
1153 1 0.0410033 -0.00991491 0.000999992 331.192 
1029 1 0.0435086 -0.00935559 0.000999995 324.861 
734 1 0.0450013 -0.0106867 0.000999997 310.939 
168 1 0.0467898 -0.0104128 0.001852 323.221 
673 1 0.0479253 -0.00900397 0.000999991 323.46 
230 1 0.00208414 -0.00710001 0.000999993 315.575 
962 1 0.00400567 -0.00765473 0.000999989 321.947 
829 1 0.00807393 -0.0082964 0.000999989 329.298 
409 1 0.0100683 -0.00814704 0.00100015 325.759 
524 1 0.0120481 -0.00786324 0.000999994 321.856 
1221 1 0.0140493 -0.00781585 0.000999998 304.355 
1092 1 0.0173393 -0.0086903 0.00181755 354.425 
461 1 0.016624 -0.00701102 0.000999992 329.133 
1062 1 0.0197951 -0.00762048 0.000999986 350.043 
790 1 0.0215614 -0.00748521 0.00192831 377.652 
200 1 0.0233297 -0.00737885 0.000999993 349.773 
602 1 0.0247258 -0.00899514 0.000999997 317.439 
546 1 0.0254076 -0.0074302 0.00204216 324.855 
1240 1 0.0269157 -0.00822994 0.000999998 309.049 
247 1 0.0292594 -0.00829331 0.00099999 346.248 
973 1 0.0315646 -0.00811889 0.00099999 333.493 
1319 1 0.0334732 -0.00871669 0.000999992 333.664 
947 1 0.0365133 -0.00779137 0.00138712 315.028 
238 1 0.0398083 -0.00744564 0.000999998 322.804 
162 1 0.0418495 -0.0074875 0.000999997 313.44 
367 1 0.0444121 -0.00769988 0.0016651 324.351 
1274 1 0.0459344 -0.00881346 0.000999986 336.961 
1074 1 0.0498512 -0.00837755 0.000999998 300 
28 1 0.0010002 -0.00541922 0.000999994 308.97 
956 1 0.00299492 -0.00525842 0.000999998 300 
134 1 0.00500411 -0.00536152 0.000999994 329.377 
825 1 0.00684751 -0.00671657 0.000999995 327.79 
976 1 0.00894151 -0.00649438 0.000999994 340.208 
169 1 0.0109715 -0.00601028 0.000999993 338.456 
556 1 0.0129962 -0.00610228 0.000999995 339.888 
421 1 0.0149261 -0.00609382 0.001525 344.7 
1217 1 0.0184323 -0.00615665 0.000999998 333.612 
1325 1 0.0210603 -0.00573656 0.000999998 300 
496 1 0.0230199 -0.00528279 0.000999996 354.084 
639 1 0.024956 -0.005784 0.00099999 349.929 
1151 1 0.0269057 -0.0062297 0.000999984 350.022 
443 1 0.0289813 -0.00545446 0.000999998 300 
1231 1 0.0310307 -0.00545221 0.000999998 300 
146 1 0.0303193 -0.00698151 0.00207498 372.547 
1290 1 0.0330366 -0.00676492 0.000999997 323.395 
1075 1 0.0353259 -0.00621403 0.000999995 323.943 
618 1 0.038025 -0.00654034 0.000999998 306.306 
83 1 0.0399098 -0.00544822 0.000999985 345.24 
974 1 0.0424605 -0.00544572 0.000999991 341.78 
1289 1 0.0449382 -0.00588859 0.000999992 332.66 
772 1 0.0466402 -0.00609637 0.0020296 356.41 
530 1 0.0482999 -0.00652692 0.000999994 325.401 
283 1 0.00371069 -0.00338745 0.000999998 300 
750 1 0.00569464 -0.00311858 0.000999998 300.005 
234 1 0.00689912 -0.00471724 0.000999994 340.026 
1025 1 0.00808666 -0.00310784 0.000999998 300 
139 1 0.00957698 -0.00451694 0.000999998 300 
791 1 0.0119528 -0.0041857 0.000999985 354.228 
402 1 0.0153626 -0.004214 0.000999994 339.781 
1087 1 0.017357 -0.00447035 0.000999991 348.462 
519 1 0.0193899 -0.00431182 0.000999993 354.031 
275 1 0.0216938 -0.00378558 0.000999994 339.597 
142 1 0.0249492 -0.00393316 0.00175782 369.043 
90 1 0.0267754 -0.00423396 0.000999996 342.257 
492 1 0.032699 -0.00434362 0.000999993 331.717 
749 1 0.0350091 -0.00423928 0.000999994 335.679 
1187 1 0.0369358 -0.00484893 0.000999997 316.916 
175 1 0.0402006 -0.00358298 0.00166048 358.942 
1050 1 0.0420853 -0.00347573 0.000999995 324.02 
846 1 0.0439728 -0.00413701 0.000999988 333.373 
424 1 0.0456873 -0.00431841 0.00201368 338.361 
1243 1 0.0474114 -0.00430605 0.000999998 322 
3721 1 0.0493439 -0.00482097 0.000999988 319.59 
77 1 0.00106416 -0.00207451 0.000999998 300 
37 1 0.00269634 -0.00135299 0.00200246 338.82 
1108 1 0.00442621 -0.00130241 0.000999983 337.216 
385 1 0.0074663 -0.0011745 0.000999988 343.52 
89 1 0.0100508 -0.00255549 0.000999998 300 
318 1 0.0118586 -0.00167902 0.000999998 325.472 
32 1 0.0138228 -0.00205531 0.000999998 322.431 
964 1 0.0158217 -0.00212183 0.000999998 316.489 
1180 1 0.0177825 -0.00251614 0.000999993 335.694 
885 1 0.0201852 -0.00247261 0.000999997 342.332 
264 1 0.0220832 -0.00158202 0.000999986 364.949 
258 1 0.0241116 -0.00228266 0.001 373.256 
291 1 0.0258098 -0.00110755 0.000999998 328.054 
1052 1 0.0282802 -0.00291658 0.000999992 361.699 
486 1 0.0304223 -0.00274938 0.000999993 346.084 
401 1 0.0328101 -0.00186878 0.000999996 322.273 
91 1 0.0348112 -0.00186302 0.00099999 336.675 
1248 1 0.0364864 -0.00291987 0.00127711 324.864 
1196 1 0.0384654 -0.00283657 0.000999995 321.961 
351 1 0.0409167 -0.00183629 0.000999995 330.14 
1003 1 0.0429073 -0.00158973 0.000999997 321.682 
545 1 0.0452833 -0.00262575 0.000999997 325.714 
31 1 0.0472197 -0.00212533 0.000999991 318.942 
1027 1 0.0491105 -0.00283465 0.000999996 306.28 
620 1 0.00150677 0.000624044 0.000999984 318.074 
817 1 0.00370987 0.000569599 0.000999998 300 
127 1 0.00591125 -0.000406584 0.00199601 371.392 
306 1 0.00756563 0.000823028 0.000999994 323.748 
167 1 0.00960301 -0.000600847 0.000999992 345.785 
721 1 0.0132144 -0.000384327 0.00191523 385.953 
33 1 0.0157865 -0.000111508 0.000999998 300 
522 1 0.0178034 -0.000349498 0.000999998 300 
1330 1 0.0201726 -0.000472063 0.000999998 300 
624 1 0.0239822 -0.000286865 0.000999988 358.989 
799 1 0.0222849 0.000162791 0.00195755 392.327 
644 1 0.0278053 -0.000973797 0.000999988 368.414 
181 1 0.0267602 0.000746222 0.000999994 361.261 
289 1 0.0300684 -0.000444246 0.000999989 348.644 
899 1 0.0320249 -2.93762e-05 0.000999997 318.958 
184 1 0.0341146 1.68922e-05 0.000999998 303.389 
1191 1 0.0369446 -0.000988222 0.000999998 308.916 
625 1 0.0395856 -0.000291091 0.000999998 314.911 
250 1 0.0417007 7.8193e-06 0.000999996 326.091 
1247 1 0.0440455 0.000574394 0.000999991 331.384 
518 1 0.045939 -0.000588995 0.000999992 333.634 
198 1 0.0476838 0.000898628 0.000999998 300 
527 1 0.0488465 -0.000852146 0.000999995 309.801 
904 1 0.0494914 0.00083641 0.00185608 329.412 
305 1 0.00264916 0.00226565 0.00100002 323.321 
408 1 0.00557638 0.00129512 0.000999993 341.711 
1037 1 0.00643218 0.00282586 0.00196146 361.329 
1054 1 0.00968458 0.00225442 0.000999996 321.432 
310 1 0.011896 0.00105161 0.000999998 307.887 
364 1 0.0129022 0.00293552 0.000999998 313.695 
392 1 0.0139525 0.00123354 0.000999991 343.656 
430 1 0.0169059 0.00174167 0.000999993 345.746 
723 1 0.018996 0.00172789 0.000999992 340.925 
279 1 0.0209923 0.00135248 0.000999998 300 
1099 1 0.0248586 0.00295496 0.000999993 354.551 
1044 1 0.0241312 0.00141222 0.00204443 407.304 
1226 1 0.0268526 0.0027672 0.000999989 373.115 
474 1 0.0285332 0.00167963 0.000999992 348.391 
1175 1 0.0304799 0.00146998 0.0014079 359.792 
280 1 0.033244 0.00181831 0.000999998 309.341 
476 1 0.0350733 0.0024588 0.0014934 338.767 
735 1 0.0363974 0.00104339 0.000999985 352.811 
311 1 0.0384834 0.00158561 0.000999987 350.164 
562 1 0.0405308 0.00178272 0.000999989 338.396 
197 1 0.0425283 0.0018813 0.000999995 322.084 
615 1 0.0443907 0.00261031 0.000999986 333.327 
568 1 0.0458138 0.00132471 0.00156747 355.334 
1197 1 0.0497082 0.00263088 0.000999994 327.522 
366 1 0.00100063 0.00383724 0.000999997 305.471 
920 1 0.0043839 0.00326097 0.00099999 324.879 
1036 1 0.00644526 0.00457953 0.000999989 324.996 
314 1 0.00844704 0.00420371 0.000999998 300 
1224 1 0.0104826 0.00408961 0.000999992 333.074 
1124 1 0.0123036 0.0049164 0.000999992 339.663 
1286 1 0.0152051 0.00422662 0.000999983 349.927 
972 1 0.0186014 0.00369399 0.000999996 324.898 
493 1 0.0202753 0.0030119 0.00185588 388.51 
939 1 0.02075 0.00475605 0.000999988 361.107 
923 1 0.0220823 0.00307749 0.000999993 351.14 
241 1 0.0235323 0.00445514 0.00099999 362.487 
322 1 0.0254857 0.00479463 0.00147149 369.197 
485 1 0.0274261 0.00468323 0.000999995 348.264 
814 1 0.0294225 0.00456453 0.000999989 354.111 
1229 1 0.031651 0.00303909 0.000999991 345.357 
879 1 0.0329318 0.00472625 0.000999998 300 
1019 1 0.0354244 0.00436559 0.000999992 339.168 
26 1 0.0374497 0.00408386 0.000999998 300 
946 1 0.0393304 0.00340354 0.000999998 310.199 
1314 1 0.041438 0.0035651 0.000999997 324.538 
300 1 0.0429164 0.00497018 0.000999991 330.514 
757 1 0.0450352 0.00455742 0.000999996 321.229 
121 1 0.0464429 0.00313648 0.000999998 300 
2899 1 0.0491937 0.0045982 0.000999981 335.86 
235 1 0.0481355 0.00327053 0.00205706 361.046 
852 1 0.00147344 0.00578054 0.000999994 303.649 
143 1 0.00359123 0.00509717 0.000999997 318.331 
712 1 0.00611097 0.00655139 0.000999995 316.254 
857 1 0.00765647 0.00583318 0.0020467 332.453 
156 1 0.0101028 0.0060672 0.000999991 330.199 
733 1 0.0125017 0.00690655 0.000999988 337.683 
761 1 0.0142906 0.00601067 0.000999998 300 
1306 1 0.0170989 0.00501409 0.000999991 335.295 
1285 1 0.0165014 0.00696653 0.000999998 306.817 
237 1 0.0189814 0.0056897 0.000999997 331.2 
621 1 0.0222928 0.00602882 0.00099999 347.468 
1134 1 0.0242725 0.00631312 0.000999989 351.494 
1154 1 0.028986 0.0067722 0.000999991 352.381 
332 1 0.0310772 0.00569306 0.000999998 300 
404 1 0.0326452 0.00696578 0.000999994 333.431 
1299 1 0.0344553 0.0061151 0.000999994 331.408 
1088 1 0.0366774 0.00592881 0.000999988 362.64 
54 1 0.0390828 0.00538836 0.000999994 329.429 
176 1 0.0410339 0.00582837 0.000999992 324.544 
544 1 0.045517 0.00651339 0.000999998 300 
469 1 0.0472716 0.00515104 0.000999995 315.623 
14 1 0.048698 0.00655308 0.000999996 319.697 
741 1 0.000999996 0.00772368 0.00100003 303.167 
187 1 0.00278473 0.00862649 0.000999991 306.322 
540 1 0.00401709 0.00705129 0.000999987 312.76 
193 1 0.00477637 0.00895898 0.000999998 300 
253 1 0.0068207 0.00842122 0.000999996 311.659 
959 1 0.00850773 0.00730957 0.000999992 319.028 
328 1 0.0114072 0.0088517 0.000999998 300 
718 1 0.0132987 0.00844915 0.0019926 338.57 
978 1 0.0151909 0.00848408 0.000999991 332.326 
488 1 0.0171399 0.00893312 0.000999991 327.815 
847 1 0.0186891 0.00766823 0.000999992 333.756 
473 1 0.0206944 0.00740135 0.000999998 300 
854 1 0.0226507 0.00799697 0.000999991 352.177 
207 1 0.0263751 0.0073962 0.000999998 300.244 
513 1 0.0293352 0.00896057 0.00151575 328.438 
651 1 0.0307733 0.00766986 0.000999989 335.941 
1298 1 0.0326488 0.00875108 0.00190147 326.901 
1244 1 0.0353883 0.00770327 0.00177925 363.541 
611 1 0.0372176 0.00791835 0.000999986 336.539 
730 1 0.0393588 0.00754801 0.000999997 323.957 
835 1 0.0417267 0.00744182 0.00195747 365.313 
110 1 0.0436805 0.00766014 0.000999996 321.691 
428 1 0.0469194 0.00795518 0.000999997 302.93 
174 1 0.0497579 0.00825521 0.000999987 327.944 
205 1 0.00100021 0.00991911 0.000999985 302.06 
177 1 0.00272024 0.0104073 0.001908 303.92 
674 1 0.00638342 0.0103728 0.000999989 308.575 
79 1 0.00942032 0.00908922 0.000999998 314.979 
1320 1 0.0104938 0.0103921 0.00207241 323.692 
779 1 0.012119 0.0108494 0.00100017 316.794 
292 1 0.0139551 0.0100566 0.000999991 323.038 
11 1 0.015904 0.0105056 0.00099999 321.913 
50 1 0.0188973 0.00950435 0.00176508 319.916 
1042 1 0.0207436 0.00942882 0.000999998 305.187 
694 1 0.0226224 0.0101149 0.000999989 334.992 
147 1 0.0240051 0.00907428 0.00200252 369.233 
983 1 0.0256274 0.00967679 0.000999989 331.465 
798 1 0.0278229 0.0101635 0.000999996 311.725 
966 1 0.0311269 0.00968438 0.000999995 314.831 
1186 1 0.033815 0.0102344 0.000999995 320.012 
1091 1 0.035782 0.00950263 0.000999993 332.671 
93 1 0.0382867 0.00960858 0.000999998 324.728 
1160 1 0.0399631 0.0106994 0.000999988 310.86 
575 1 0.0411762 0.00910919 0.00099999 325.602 
985 1 0.04312 0.00957997 0.000999996 311.246 
359 1 0.0453271 0.00941899 0.000999995 316.074 
969 1 0.0472618 0.00992566 0.000999998 305.453 
78 1 0.0492059 0.0103951 0.000999992 305.12 
363 1 0.000999994 0.0125472 0.000999995 300.454 
811 1 0.00296408 0.0122886 0.00127469 301.697 
743 1 0.00449491 0.0110312 0.000999993 302.994 
1251 1 0.00600936 0.0123375 0.000999995 302.604 
72 1 0.009055 0.0112752 0.000999994 308.266 
1313 1 0.0110293 0.0125265 0.00099999 307.678 
654 1 0.0139151 0.0120596 0.000999989 315.783 
271 1 0.0178306 0.0110469 0.000999998 300 
15 1 0.0191506 0.0123316 0.00178965 314.48 
215 1 0.0208644 0.0116686 0.00099999 316.707 
420 1 0.0226323 0.0118976 0.00190669 321.798 
449 1 0.0244554 0.012149 0.000999998 306.724 
39 1 0.0263672 0.0115349 0.000999992 314.006 
188 1 0.0295985 0.0111181 0.000999991 320.642 
425 1 0.028129 0.0124814 0.000999992 306.338 
1095 1 0.0312193 0.01229 0.000999998 300.001 
1227 1 0.033219 0.0122468 0.000999995 309.739 
119 1 0.0353448 0.0122912 0.000999998 300 
650 1 0.0369685 0.0111127 0.000999989 319.552 
1138 1 0.0386186 0.0122428 0.000999992 311.936 
979 1 0.0405124 0.0124274 0.00184388 317.391 
316 1 0.0424182 0.0117034 0.000999998 302.664 
1297 1 0.0443447 0.0111611 0.00099999 313.09 
1206 1 0.046545 0.0118446 0.000999993 308.034 
380 1 0.0484365 0.0121497 0.00157368 302.677 
347 1 0.00209295 0.014 0.00183359 300.431 
309 1 0.00396196 0.014 0.000999998 300.652 
1130 1 0.00566062 0.014 0.00205571 301.922 
807 1 0.00735927 0.014 0.000999991 301.495 
114 1 0.00931258 0.0135525 0.000999993 302.848 
240 1 0.0123816 0.014 0.000999997 303.664 
672 1 0.0144052 0.014 0.000999998 302.614 
729 1 0.0161846 0.014 0.00191321 310.202 
758 1 0.0179409 0.0137147 0.000999996 306.292 
1038 1 0.0199206 0.014 0.000999993 305.547 
81 1 0.0217812 0.0139926 0.00173331 310.565 
676 1 0.0236419 0.0139761 0.000999994 305.347 
534 1 0.0264779 0.0137765 0.000999998 300 
526 1 0.0299137 0.014 0.000999997 301.575 
101 1 0.0322566 0.014 0.000999994 305.4 
1304 1 0.0342566 0.014 0.00099999 307.095 
1171 1 0.0370685 0.0139096 0.000999998 300 
442 1 0.0396097 0.014 0.000999989 308.255 
348 1 0.0423193 0.0137126 0.000999998 300 
626 1 0.0443208 0.014 0.000999994 302.19 
935 1 0.0466517 0.0139477 0.000999998 300 
766 1 0.0489339 0.014 0.000999995 301.526 
728 1 0.00392052 -0.014 0.00238429 304.54 
1249 1 0.00256444 -0.0132265 0.00363435 311.29 
929 1 0.00450257 -0.0131416 0.00412055 319.611 
1137 1 0.00634469 -0.014 0.00274303 309.509 
1097 1 0.0078871 -0.0133954 0.0038635 328.244 
598 1 0.0095839 -0.014 0.0029944 317.974 
1056 1 0.0115791 -0.014 0.0031329 319.603 
747 1 0.0135702 -0.014 0.00294461 310.95 
1337 1 0.0162623 -0.0135725 0.00273454 306.114 
789 1 0.0184969 -0.014 0.00263796 320.861 
894 1 0.0203583 -0.014 0.00336963 321.578 
507 1 0.0220847 -0.0132262 0.00272104 318.805 
170 1 0.0250702 -0.014 0.00238244 312.433 
993 1 0.0240141 -0.0139722 0.00408059 335.047 
1048 1 0.0275175 -0.0134232 0.00263438 323.148 
1267 1 0.0262053 -0.014 0.00402915 309.082 
43 1 0.0295 -0.014 0.00274091 314.678 
1169 1 0.0312288 -0.014 0.00374657 331.887 
1008 1 0.0331407 -0.0134146 0.0037886 321.14 
1168 1 0.0342309 -0.014 0.00221734 312.181 
288 1 0.0350354 -0.014 0.00404837 321.24 
158 1 0.0375146 -0.014 0.00317125 304.729 
47 1 0.0406544 -0.0133617 0.00269294 325.221 
274 1 0.0425983 -0.014 0.00386091 320.666 
652 1 0.0441287 -0.014 0.00257328 311.156 
689 1 0.0463276 -0.014 0.00275222 306.506 
1184 1 0.0483371 -0.014 0.00274697 306.083 
1026 1 0.000999991 -0.0126891 0.00251021 304.825 
261 1 0.000999995 -0.011326 0.00397369 309.575 
1343 1 0.00301409 -0.0113076 0.00397475 323.756 
87 1 0.00423913 -0.0120312 0.0022356 305.239 
355 1 0.00504244 -0.0112267 0.00391614 333.562 
1208 1 0.00656471 -0.0120234 0.00253146 307.407 
22 1 0.00843274 -0.011079 0.00371936 344.909 
378 1 0.0101037 -0.0120919 0.00329275 327.486 
1220 1 0.0128444 -0.012285 0.00367402 323.458 
4 1 0.0145348 -0.0124065 0.00221646 313.07 
336 1 0.015519 -0.0118383 0.00386221 318.755 
622 1 0.0176585 -0.0122282 0.00224094 311.57 
1077 1 0.0174136 -0.0112732 0.00416425 344.569 
736 1 0.0189909 -0.012447 0.00379728 365.552 
681 1 0.0203697 -0.0122626 0.00236006 308.386 
859 1 0.022665 -0.0115618 0.00410205 357.137 
806 1 0.0239103 -0.0124121 0.00278814 336.054 
1152 1 0.0260548 -0.0120702 0.00246214 334.508 
999 1 0.0279366 -0.0119296 0.00389669 338.421 
1316 1 0.0289735 -0.011821 0.0021899 330.422 
797 1 0.029953 -0.0124734 0.00395094 335.214 
1264 1 0.0315301 -0.0122716 0.00273395 309.789 
20 1 0.0336445 -0.0118753 0.00261523 345.161 
1336 1 0.0350723 -0.0118548 0.00401562 334.113 
1126 1 0.0354465 -0.0110244 0.00213404 333.079 
233 1 0.0359508 -0.0129117 0.00256269 310.612 
450 1 0.0369507 -0.0113847 0.00340195 341.927 
160 1 0.0392319 -0.0123737 0.00369314 357.417 
724 1 0.0409925 -0.0114286 0.00230715 340.084 
876 1 0.0419024 -0.0120667 0.00396995 352.629 
872 1 0.0425493 -0.0128203 0.00223337 308.242 
704 1 0.0449215 -0.0120423 0.00276611 313.824 
945 1 0.0469145 -0.0120959 0.00292509 321.993 
221 1 0.0489219 -0.0120878 0.00278378 324.101 
1245 1 0.000999993 -0.00928449 0.00395345 315.358 
744 1 0.00199872 -0.0103191 0.00256345 313.926 
635 1 0.00390569 -0.00984746 0.00293895 327.688 
136 1 0.00590224 -0.00974057 0.00289044 335.194 
418 1 0.00782929 -0.00974667 0.00235529 336.62 
1057 1 0.0112144 -0.00913699 0.00230648 335.883 
259 1 0.0102857 -0.010154 0.00396539 376.801 
1318 1 0.0125372 -0.0106075 0.00262928 353.041 
725 1 0.0121185 -0.00937428 0.00414712 410.812 
1205 1 0.0144017 -0.00990101 0.00247217 363.614 
422 1 0.0163222 -0.0103914 0.00273907 337.279 
924 1 0.0183927 -0.0103733 0.00267041 350.65 
395 1 0.0200087 -0.0107212 0.00379621 355.26 
1195 1 0.0205045 -0.00947314 0.00231414 334.047 
500 1 0.0225748 -0.0102262 0.0026161 345.823 
213 1 0.0246572 -0.0105577 0.00272838 336.095 
909 1 0.0263344 -0.0095128 0.00242 363.307 
740 1 0.0265318 -0.0105259 0.00413308 381.112 
521 1 0.0284821 -0.00929895 0.00254496 378.924 
997 1 0.0297075 -0.0105331 0.00353251 370.02 
445 1 0.0304806 -0.00911342 0.00235493 364.676 
1261 1 0.0322714 -0.0104207 0.00289093 317.596 
529 1 0.0340991 -0.00964259 0.00265859 356.859 
277 1 0.0355513 -0.00991304 0.00402491 381.791 
124 1 0.0367214 -0.00947922 0.002462 372.924 
960 1 0.0385169 -0.0102744 0.00284128 361.41 
510 1 0.0401572 -0.0106169 0.00393302 404.31 
533 1 0.0434256 -0.0107171 0.00268929 343.147 
552 1 0.044975 -0.00945352 0.0026339 379.66 
697 1 0.0458235 -0.0106606 0.00398403 391.829 
440 1 0.0475928 -0.00981798 0.00358448 362.577 
1021 1 0.0490805 -0.0100354 0.00226562 342.29 
95 1 0.0495155 -0.0105984 0.00413479 369.407 
564 1 0.00099999 -0.00828587 0.00219099 312.828 
1178 1 0.00294431 -0.00812116 0.0026297 318.171 
1005 1 0.00493772 -0.00799531 0.00273643 350.886 
284 1 0.00642498 -0.00807971 0.00407095 373.263 
27 1 0.00807073 -0.00718883 0.00266529 375.809 
344 1 0.00938651 -0.00866083 0.00298457 365.575 
455 1 0.0105623 -0.00708018 0.00263943 381.598 
636 1 0.0124312 -0.00770239 0.00298568 376.306 
1006 1 0.0139625 -0.00858986 0.00391714 412.33 
457 1 0.0154895 -0.00790228 0.00238508 317.983 
719 1 0.0174886 -0.00898444 0.00379015 396.987 
970 1 0.0173748 -0.00710733 0.00303941 372.63 
179 1 0.019032 -0.00819104 0.00275844 382.468 
138 1 0.0218439 -0.00861733 0.00355266 397.706 
818 1 0.0203462 -0.00738063 0.00402971 443.006 
246 1 0.0236322 -0.00852863 0.00260825 347.202 
52 1 0.0251761 -0.00874884 0.00386041 396.287 
788 1 0.0270982 -0.00816529 0.00368523 400.211 
988 1 0.028116 -0.00722336 0.00224411 386.726 
490 1 0.0294674 -0.00792801 0.00361716 415.998 
84 1 0.031579 -0.00882185 0.0040007 440.918 
574 1 0.0326897 -0.00787248 0.00263506 366.982 
1270 1 0.0346324 -0.00763772 0.00222151 360.37 
890 1 0.0361877 -0.00783246 0.00346367 425.3 
51 1 0.0380266 -0.00798128 0.00269142 407.144 
631 1 0.0399048 -0.00892272 0.00234495 334.541 
96 1 0.0393912 -0.00787195 0.00414942 484.142 
511 1 0.0410111 -0.00732224 0.00280826 353.415 
466 1 0.041122 -0.00887299 0.00410041 484.914 
1303 1 0.0421003 -0.00893786 0.00235721 381.364 
958 1 0.0436162 -0.00824038 0.00345969 427.058 
801 1 0.0466159 -0.00823817 0.00279014 383.439 
12 1 0.0485517 -0.00783185 0.00249456 354.058 
1322 1 0.00166231 -0.00652449 0.00286836 331.991 
1341 1 0.00396419 -0.00627271 0.00244508 342.106 
558 1 0.00510905 -0.00651309 0.00406821 394.655 
1255 1 0.00617585 -0.0056989 0.0025853 360.106 
56 1 0.00920399 -0.00554256 0.00273928 398.065 
1328 1 0.0124008 -0.00589791 0.00386145 463.068 
981 1 0.0141383 -0.00669754 0.00326137 388.01 
63 1 0.016488 -0.00538171 0.00255375 394.175 
942 1 0.0197866 -0.00626282 0.00246853 410.282 
1115 1 0.0187325 -0.00616465 0.0041654 476.091 
394 1 0.0204476 -0.00512481 0.00397452 412.338 
433 1 0.0221624 -0.00664013 0.00363846 459.157 
1004 1 0.0238057 -0.00623755 0.0025719 396.871 
957 1 0.0256907 -0.00562412 0.0028533 361.064 
436 1 0.0276169 -0.00518118 0.0025475 406.717 
769 1 0.0283152 -0.00634638 0.0040305 471.262 
141 1 0.0300155 -0.00540323 0.00326521 425.712 
59 1 0.0319484 -0.00601689 0.00271977 380.796 
104 1 0.0339034 -0.00541545 0.00219479 353.011 
489 1 0.0353605 -0.00612222 0.00408883 439.202 
1166 1 0.0366481 -0.00613693 0.00250276 324.652 
58 1 0.0378524 -0.00653306 0.00405974 452.506 
593 1 0.0392466 -0.00639765 0.00263055 379.041 
897 1 0.041185 -0.00533196 0.00253628 393.763 
1 1 0.0428685 -0.00661072 0.0025736 372.793 
759 1 0.0446992 -0.00576291 0.00298167 385.872 
396 1 0.0462771 -0.0066257 0.00392378 433.936 
1234 1 0.0482705 -0.00512445 0.00266 355.323 
3839 1 0.0498275 -0.00635211 0.00292208 383.082 
539 1 0.000999991 -0.00463755 0.00284091 321.278 
502 1 0.0028692 -0.00496099 0.00348449 339.213 
1090 1 0.00241806 -0.00326162 0.00253127 331.079 
666 1 0.00465322 -0.00440221 0.00271947 347.243 
102 1 0.00755571 -0.00396157 0.00273142 390.177 
263 1 0.00952789 -0.00357948 0.00294262 426.779 
659 1 0.0111076 -0.00492458 0.00267413 363.614 
61 1 0.0132155 -0.00474062 0.00244835 392.04 
701 1 0.014857 -0.00485586 0.003585 439.666 
968 1 0.0144952 -0.00320426 0.00249262 391.394 
949 1 0.0164875 -0.00336364 0.00242094 377.424 
815 1 0.0184075 -0.00482756 0.00266398 400.477 
941 1 0.0219151 -0.00493099 0.00262965 391.711 
793 1 0.0203805 -0.00364863 0.00260586 399.954 
371 1 0.0217992 -0.00348212 0.00400576 506.939 
437 1 0.0237219 -0.00436751 0.00327611 387.687 
232 1 0.0256883 -0.00374046 0.00360621 421.526 
1053 1 0.0274331 -0.0032043 0.00278871 379.071 
1113 1 0.0294168 -0.00367225 0.0024619 416.348 
239 1 0.0285386 -0.00436099 0.00412155 504.537 
125 1 0.0313661 -0.00411936 0.00247416 378.128 
503 1 0.0305202 -0.00320882 0.00406428 482.352 
685 1 0.0338027 -0.00315327 0.00216831 348.006 
1183 1 0.0329001 -0.00455259 0.00369441 373.438 
607 1 0.0355435 -0.00451931 0.00290681 400.128 
670 1 0.0344352 -0.0033252 0.00406679 485.437 
337 1 0.0372277 -0.00348272 0.00320522 407.186 
1129 1 0.0385362 -0.00458563 0.00217014 363.967 
731 1 0.0397943 -0.0039422 0.00358553 461.739 
571 1 0.0429846 -0.00447594 0.00270542 353.764 
971 1 0.0428698 -0.00304037 0.00409671 462.436 
708 1 0.0447234 -0.00389631 0.00371446 382.711 
886 1 0.0466457 -0.00466918 0.00373368 355.142 
1181 1 0.0478672 -0.0031672 0.00257964 353.243 
7 1 0.000999995 -0.00224926 0.00351349 335.322 
194 1 0.00444504 -0.00241389 0.00266259 371.844 
824 1 0.00663811 -0.002199 0.00250483 377.859 
850 1 0.00789364 -0.0024833 0.00403545 396.524 
520 1 0.00878403 -0.00181657 0.00236061 388.801 
1122 1 0.011365 -0.00295271 0.00246086 399.593 
1071 1 0.0110248 -0.00157098 0.0038662 455.335 
1326 1 0.0128951 -0.00189142 0.00319063 413.396 
592 1 0.0149515 -0.00128289 0.00280888 404.73 
251 1 0.0169801 -0.001426 0.00247444 369.921 
702 1 0.0161354 -0.00228746 0.00406953 365.909 
1149 1 0.0180125 -0.00280077 0.00358607 445.898 
379 1 0.0189674 -0.00158635 0.00231587 376.666 
1284 1 0.0210353 -0.00176092 0.00269408 423.94 
794 1 0.0227832 -0.00284188 0.00238658 412.308 
448 1 0.0225297 -0.0013417 0.0039554 478.62 
1114 1 0.0242126 -0.00239472 0.00371208 484.777 
1335 1 0.0270199 -0.00120829 0.00282432 464.427 
687 1 0.0291767 -0.00168212 0.00229324 411.762 
753 1 0.0287052 -0.00236798 0.00411184 510.502 
628 1 0.0312942 -0.00143576 0.00223057 348.265 
937 1 0.0323336 -0.00265285 0.00342984 421.079 
637 1 0.0355118 -0.00215918 0.00284971 400.697 
998 1 0.0373732 -0.001489 0.00314284 382.907 
128 1 0.0393168 -0.00208354 0.00264561 358.415 
871 1 0.0411969 -0.00260098 0.00308983 335.592 
992 1 0.0426257 -0.00120919 0.00294356 352.752 
587 1 0.0438385 -0.00269671 0.00238109 374.824 
710 1 0.0445866 -0.00189194 0.0040522 453.469 
512 1 0.0461727 -0.00207084 0.00270327 319.014 
21 1 0.0478069 -0.00170423 0.00394202 421.115 
1170 1 0.0495766 -0.00258666 0.00344025 383.901 
822 1 0.000999987 -0.000473589 0.00259319 324.753 
109 1 0.0024542 -0.000832872 0.00391839 370.885 
528 1 0.00578114 -0.000842966 0.00394346 444.326 
242 1 0.00411277 -0.000225061 0.00285187 349.664 
144 1 0.00763281 -0.000245222 0.00300108 385.773 
1192 1 0.00914761 -0.000927255 0.00411472 439.159 
419 1 0.00945075 0.000512878 0.0026542 387.337 
412 1 0.0112445 -0.000305026 0.0023172 332.42 
1076 1 0.0126516 8.42538e-06 0.00379379 443.26 
62 1 0.0149188 0.000712616 0.0026792 409.345 
296 1 0.0169126 0.000567618 0.00261911 405.073 
1125 1 0.0179476 -0.000535511 0.00398153 432.218 
229 1 0.0189022 0.000404401 0.0024965 401.877 
1121 1 0.0207436 0.000143193 0.00323189 426.476 
1269 1 0.0233602 0.000450973 0.00361969 484.057 
182 1 0.0248598 -0.000777839 0.00272881 367.235 
438 1 0.0259157 0.000919027 0.00280466 451.072 
1194 1 0.0286065 0.000232978 0.00237905 408.353 
896 1 0.0318096 -0.000830484 0.00406577 469.024 
1030 1 0.0305119 0.000242498 0.00298658 410.349 
334 1 0.033172 -0.000725086 0.00260031 317.364 
19 1 0.0356439 -0.00022773 0.00234772 400.045 
65 1 0.0377027 0.000305464 0.00232351 373.76 
1120 1 0.0390534 -0.000489579 0.00382456 435.378 
1079 1 0.0395763 0.00096548 0.00255594 371.025 
1268 1 0.0407291 -0.00066785 0.0026123 365.567 
267 1 0.0425149 0.000767667 0.00266122 354.313 
307 1 0.0436758 2.84903e-05 0.00411238 461.02 
640 1 0.0445885 -0.000664407 0.00247324 384.669 
1235 1 0.0459945 0.00043435 0.00337651 361.145 
559 1 0.0474154 -0.000541394 0.0023621 319.137 
70 1 0.0493083 -0.000516063 0.00336394 368.977 
777 1 0.000999995 0.00110825 0.00381703 323.108 
471 1 0.000999996 0.00219067 0.00213525 316.482 
1043 1 0.00259936 0.0010612 0.00261711 341.584 
1165 1 0.0043985 0.00192522 0.00248846 362.119 
1342 1 0.00615918 0.00122393 0.00312734 380.1 
948 1 0.00824989 0.00209418 0.00238418 349 
73 1 0.00954494 0.00198347 0.0040064 418.462 
505 1 0.0109079 0.00187772 0.00253671 340.254 
921 1 0.0128894 0.00162969 0.00264707 343.444 
698 1 0.0148031 0.00263621 0.00214408 384.051 
542 1 0.0161275 0.00214771 0.00356089 389.134 
202 1 0.0179548 0.00149021 0.00405531 467.712 
1312 1 0.0198177 0.00190183 0.00345535 451.409 
1100 1 0.0218928 0.00199069 0.0026682 425.243 
902 1 0.024654 0.0020511 0.00386609 471.209 
715 1 0.0275718 0.00203697 0.00271739 441.972 
209 1 0.0292263 0.00157551 0.00374179 467.209 
68 1 0.030945 0.00242399 0.00317064 402.481 
189 1 0.0323332 0.0010903 0.00262827 354.862 
122 1 0.0331342 0.00221269 0.00408336 402.489 
1112 1 0.0343195 0.0011875 0.00284081 367.297 
1259 1 0.0371473 0.00244187 0.00221728 396.142 
570 1 0.0366618 0.0011466 0.00380976 448.87 
1070 1 0.0392343 0.0028996 0.00293307 344.644 