ITEM: TIMESTEP
9800000
ITEM: NUMBER OF ATOMS
5000
ITEM: BOX BOUNDS mm mm mm
0 0.1
-0.015 0.015
0 0.3
ITEM: ATOMS id type x y z f_Temp[0] 
977 1 0.00102825 -0.014 0.000999993 300.448 
581 1 0.00280532 -0.013082 0.000999998 300 
980 1 0.00536401 -0.0139934 0.000999992 301.258 
1252 1 0.00736678 -0.0139975 0.000999998 300 
648 1 0.00943464 -0.014 0.000999991 302.631 
1049 1 0.0114352 -0.0139952 0.000999998 300 
585 1 0.0133901 -0.0135652 0.000999998 300 
453 1 0.0153494 -0.0139699 0.000999997 300.386 
812 1 0.0173493 -0.0139998 0.000999993 304.351 
1111 1 0.0195007 -0.0134438 0.000999984 304.56 
713 1 0.021422 -0.014 0.000999994 301.461 
1065 1 0.0234048 -0.014 0.00126756 300.578 
82 1 0.0265155 -0.0139931 0.000999994 302.171 
383 1 0.0285156 -0.014 0.000999992 301.636 
930 1 0.030521 -0.014 0.000999997 300.803 
936 1 0.0322405 -0.014 0.00202133 301.569 
1185 1 0.0365621 -0.014 0.000999997 300.087 
961 1 0.0387276 -0.014 0.00158109 300.41 
397 1 0.0415067 -0.014 0.000999998 300.145 
434 1 0.0453634 -0.0139995 0.000999989 300.032 
845 1 0.0473634 -0.013996 0.000999993 300.003 
69 1 0.0493634 -0.014 0.000999998 300 
775 1 0.00100002 -0.0113754 0.000999998 300 
100 1 0.0029795 -0.0110896 0.000999992 301.954 
914 1 0.00557519 -0.0112015 0.00100005 302.832 
80 1 0.00757517 -0.0111953 0.000999991 305.051 
451 1 0.00998402 -0.0120769 0.000999996 305.121 
796 1 0.00840292 -0.0126653 0.00207425 301.806 
693 1 0.0116631 -0.012314 0.00206038 311.905 
1317 1 0.0131863 -0.0115688 0.000999987 311.056 
915 1 0.0160944 -0.0121103 0.000999994 303.969 
410 1 0.0190455 -0.011496 0.000999996 303.642 
830 1 0.0224371 -0.0122702 0.000999998 300.063 
320 1 0.0247898 -0.0125822 0.000999992 303.645 
112 1 0.0274126 -0.0122056 0.000999996 303.426 
75 1 0.0305709 -0.0120006 0.000999993 303.093 
44 1 0.0325472 -0.012308 0.000999993 301.347 
903 1 0.0346614 -0.0124727 0.000999987 303.183 
501 1 0.0399655 -0.0125406 0.000999994 301.069 
606 1 0.0381813 -0.0121244 0.00200969 302.324 
895 1 0.0424953 -0.0112468 0.000999991 300.955 
98 1 0.0440827 -0.0124633 0.000999998 300.104 
591 1 0.0463572 -0.0121928 0.000999998 300 
260 1 0.0483399 -0.0113954 0.000999988 300.011 
341 1 0.00236835 -0.00912792 0.000999989 303.174 
781 1 0.00434315 -0.00962605 0.00099999 305.64 
163 1 0.00630249 -0.00922482 0.000999992 307.788 
180 1 0.00969329 -0.0104144 0.00207298 319.947 
657 1 0.0113778 -0.0106424 0.000999994 305.422 
479 1 0.0130888 -0.00957115 0.00099999 315.531 
1334 1 0.0156328 -0.00933789 0.000999989 319.701 
236 1 0.0173021 -0.0105161 0.00100003 311.653 
463 1 0.0189969 -0.0094543 0.000999987 314.956 
1058 1 0.020961 -0.0109208 0.000999997 302.645 
214 1 0.021988 -0.00920459 0.000999991 314.006 
48 1 0.0236592 -0.010687 0.000999996 305.482 
1001 1 0.0256579 -0.0107646 0.000999989 305.467 
157 1 0.0275721 -0.0101849 0.00099999 312.5 
154 1 0.0295703 -0.010269 0.000999998 310.514 
849 1 0.0316903 -0.0101262 0.000999998 300.35 
986 1 0.0337356 -0.0106994 0.000999992 305.7 
352 1 0.0353603 -0.00937906 0.000999998 304.09 
391 1 0.037078 -0.0107965 0.00099999 303.557 
828 1 0.0380495 -0.00904828 0.000999991 306.061 
1302 1 0.0391669 -0.010707 0.000999988 302.902 
1153 1 0.0410033 -0.00991491 0.000999992 302.496 
1029 1 0.0435086 -0.00935559 0.000999995 301.415 
734 1 0.0450013 -0.0106867 0.000999997 300.136 
168 1 0.0467898 -0.0104128 0.001852 300.075 
673 1 0.0479253 -0.00900397 0.000999991 300.077 
230 1 0.00208414 -0.00710001 0.000999993 308.932 
962 1 0.00400567 -0.00765473 0.000999989 313.174 
829 1 0.00807393 -0.0082964 0.000999989 316.834 
409 1 0.0100683 -0.00814704 0.00100015 310.844 
524 1 0.0120481 -0.00786324 0.000999994 310.638 
1221 1 0.0140493 -0.00781589 0.000999998 301.034 
1092 1 0.0173393 -0.0086903 0.00181755 332.603 
461 1 0.016624 -0.00701102 0.000999992 314.098 
1062 1 0.0197951 -0.00762048 0.000999986 328.481 
790 1 0.0215614 -0.00748521 0.00192831 350.8 
200 1 0.0233297 -0.00737885 0.000999993 329.069 
602 1 0.0247258 -0.00899514 0.000999997 304.729 
546 1 0.0254076 -0.0074302 0.00204216 307.207 
1240 1 0.0269157 -0.00822994 0.000999998 301.948 
247 1 0.0292594 -0.00829331 0.00099999 318.7 
973 1 0.0315646 -0.00811889 0.00099999 308.942 
1319 1 0.0334732 -0.00871669 0.000999992 307.336 
947 1 0.0365133 -0.00779137 0.00138712 300.954 
238 1 0.0398083 -0.00744564 0.000999998 301.384 
162 1 0.0418494 -0.00748768 0.000999997 300.261 
367 1 0.0444121 -0.00769988 0.0016651 300.35 
1274 1 0.0459344 -0.00881346 0.000999986 300.722 
1074 1 0.0498494 -0.00837594 0.000999998 300 
28 1 0.0010002 -0.00541922 0.000999994 304.556 
956 1 0.00299452 -0.00525764 0.000999998 300 
134 1 0.00500411 -0.00536152 0.000999994 315.875 
825 1 0.00684751 -0.00671657 0.000999995 316.574 
976 1 0.00894151 -0.00649438 0.000999994 326.49 
169 1 0.0109715 -0.00601028 0.000999993 320.18 
556 1 0.0129962 -0.00610228 0.000999995 322.41 
421 1 0.0149261 -0.00609382 0.001525 322.453 
1217 1 0.0184323 -0.00615665 0.000999998 315.094 
1325 1 0.0210585 -0.00573362 0.000999998 300 
496 1 0.0230199 -0.00528279 0.000999996 328.142 
639 1 0.024956 -0.005784 0.00099999 325.622 
1151 1 0.0269057 -0.0062297 0.000999984 325.673 
443 1 0.0289882 -0.00548355 0.000999998 300 
1231 1 0.0310309 -0.00545234 0.000999998 300 
146 1 0.0303193 -0.00698151 0.00207498 323.046 
1290 1 0.0330366 -0.00676492 0.000999997 303.146 
1075 1 0.0353259 -0.00621403 0.000999995 303.327 
618 1 0.038025 -0.00654034 0.000999998 300.171 
83 1 0.0399098 -0.00544822 0.000999985 306.619 
974 1 0.0424605 -0.00544572 0.000999991 304.116 
1289 1 0.0449382 -0.00588859 0.000999992 301.318 
772 1 0.0466402 -0.00609637 0.0020296 302.219 
530 1 0.0482999 -0.00652692 0.000999994 300.218 
283 1 0.0037111 -0.00338755 0.000999998 300 
750 1 0.00569486 -0.00311872 0.000999998 300.018 
234 1 0.00689912 -0.00471724 0.000999994 324.741 
1025 1 0.00808607 -0.00310734 0.000999998 300 
139 1 0.00957923 -0.00451698 0.000999998 300 
791 1 0.0119528 -0.0041857 0.000999985 332.877 
402 1 0.0153626 -0.004214 0.000999994 319.147 
1087 1 0.017357 -0.00447035 0.000999991 323.478 
519 1 0.0193899 -0.00431182 0.000999993 324.945 
275 1 0.0216938 -0.00378558 0.000999994 318.451 
142 1 0.0249492 -0.00393316 0.00175782 327.965 
90 1 0.0267754 -0.00423396 0.000999996 315.694 
492 1 0.032699 -0.00434362 0.000999993 306.714 
749 1 0.0350091 -0.00423928 0.000999994 307.925 
1187 1 0.0369358 -0.00484893 0.000999997 301.439 
175 1 0.0402006 -0.00358298 0.00166048 312.325 
1050 1 0.0420853 -0.00347573 0.000999995 302.248 
846 1 0.0439728 -0.00413701 0.000999988 302.038 
424 1 0.0456873 -0.00431841 0.00201368 301.225 
1243 1 0.0474114 -0.00430605 0.000999998 300.235 
3721 1 0.0493439 -0.00482097 0.000999988 300.086 
77 1 0.00106181 -0.00206043 0.000999998 300 
37 1 0.00269634 -0.00135299 0.00200246 325.037 
1108 1 0.00442621 -0.00130241 0.000999983 324.808 
385 1 0.0074663 -0.0011745 0.000999988 328.629 
89 1 0.010051 -0.00255504 0.000999998 300 
318 1 0.0118586 -0.00167902 0.000999998 310.715 
32 1 0.0138228 -0.00205531 0.000999998 308.732 
964 1 0.0158217 -0.00212183 0.000999998 303.796 
1180 1 0.0177825 -0.00251614 0.000999993 314.879 
885 1 0.0201852 -0.00247261 0.000999997 317.545 
264 1 0.0220832 -0.00158202 0.000999986 334.209 
258 1 0.0241116 -0.00228266 0.001 331.532 
291 1 0.0258098 -0.00110755 0.000999998 308.698 
1052 1 0.0282802 -0.00291658 0.000999992 327.543 
486 1 0.0304223 -0.00274938 0.000999993 317.793 
401 1 0.0328101 -0.00186878 0.000999996 304.011 
91 1 0.0348112 -0.00186302 0.00099999 310.15 
1248 1 0.0364864 -0.00291987 0.00127711 303.411 
1196 1 0.0384654 -0.00283657 0.000999995 302.103 
351 1 0.0409167 -0.00183629 0.000999995 303.396 
1003 1 0.0429071 -0.00158991 0.000999997 300.887 
545 1 0.0452833 -0.00262575 0.000999997 301.131 
31 1 0.0472197 -0.00212533 0.000999991 300.266 
1027 1 0.0491105 -0.00283465 0.000999996 300.011 
620 1 0.00150677 0.000624044 0.000999984 310.509 
817 1 0.00371062 0.000569439 0.000999998 300 
127 1 0.00591125 -0.000406584 0.00199601 352.676 
306 1 0.00756563 0.000823028 0.000999994 311.197 
167 1 0.00960301 -0.000600847 0.000999992 325.775 
721 1 0.0132144 -0.000384327 0.00191523 340.158 
33 1 0.0157842 -0.000112189 0.000999998 300 
522 1 0.0178008 -0.000344165 0.000999998 300 
1330 1 0.0201728 -0.000472121 0.000999998 300 
624 1 0.0239822 -0.000286865 0.000999988 326.037 
799 1 0.0222849 0.000162791 0.00195755 339.716 
644 1 0.0278053 -0.000973797 0.000999988 336.357 
181 1 0.0267603 0.000746592 0.000999994 329.827 
289 1 0.0300684 -0.000444246 0.000999989 319.624 
899 1 0.0320249 -2.93762e-05 0.000999997 302.586 
184 1 0.0341146 1.69438e-05 0.000999998 300.196 
1191 1 0.0369444 -0.00098812 0.000999998 300.739 
625 1 0.0395708 -0.000291113 0.000999998 301.145 
250 1 0.0417007 7.81934e-06 0.000999996 302.132 
1247 1 0.0440452 0.000574232 0.000999991 301.498 
518 1 0.045939 -0.000588995 0.000999992 301.455 
198 1 0.0476837 0.000898554 0.000999998 300 
527 1 0.0488465 -0.000852146 0.000999995 300.066 
904 1 0.0494914 0.00083641 0.00185608 300.529 
305 1 0.00264916 0.00226565 0.00100002 312.469 
408 1 0.00557638 0.00129512 0.000999993 327.223 
1037 1 0.00643218 0.00282586 0.00196146 337.974 
1054 1 0.00968458 0.00225442 0.000999996 306.556 
310 1 0.0118956 0.00105181 0.000999998 301.859 
364 1 0.0129022 0.00293552 0.000999998 303.317 
392 1 0.0139525 0.00123354 0.000999991 317.843 
430 1 0.0169059 0.00174167 0.000999993 318.249 
723 1 0.0189965 0.00172786 0.000999992 316.436 
279 1 0.0209922 0.00135249 0.000999998 300 
1099 1 0.0248586 0.00295496 0.000999993 325.335 
1044 1 0.0241312 0.00141222 0.00204443 361.977 
1226 1 0.0268526 0.0027672 0.000999989 335.666 
474 1 0.0285332 0.00167963 0.000999992 315.902 
1175 1 0.0304799 0.00146998 0.0014079 318.268 
280 1 0.033244 0.00181832 0.000999998 300.668 
476 1 0.0350733 0.0024588 0.0014934 305.542 
735 1 0.0363974 0.00104339 0.000999985 313.403 
311 1 0.0384834 0.00158561 0.000999987 309.45 
562 1 0.0405308 0.00178272 0.000999989 306.32 
197 1 0.0425283 0.0018813 0.000999995 301.636 
615 1 0.0443907 0.00261031 0.000999986 302.002 
568 1 0.0458138 0.00132471 0.00156747 303.638 
1197 1 0.0497082 0.00263088 0.000999994 300.454 
366 1 0.00100063 0.00383724 0.000999997 302.483 
920 1 0.0043839 0.00326097 0.00099999 314.738 
1036 1 0.00644525 0.00457953 0.000999989 312.898 
314 1 0.00844908 0.00420941 0.000999998 300 
1224 1 0.0104826 0.00408961 0.000999992 315.164 
1124 1 0.0123036 0.0049164 0.000999992 319.275 
1286 1 0.0152051 0.00422662 0.000999983 326.366 
972 1 0.0186014 0.00369399 0.000999996 309.758 
493 1 0.0202753 0.0030119 0.00185588 344.545 
939 1 0.02075 0.00475605 0.000999988 332.406 
923 1 0.0220823 0.00307749 0.000999993 326.199 
241 1 0.0235323 0.00445514 0.00099999 330.231 
322 1 0.0254857 0.00479463 0.00147149 333.214 
485 1 0.0274261 0.00468323 0.000999995 318.915 
814 1 0.0294225 0.00456453 0.000999989 319.675 
1229 1 0.031651 0.00303909 0.000999991 311.778 
879 1 0.0329276 0.00472453 0.000999998 300 
1019 1 0.0354244 0.00436559 0.000999992 310.537 
26 1 0.0374496 0.00408381 0.000999998 300 
946 1 0.0393304 0.00340355 0.000999998 300.428 
1314 1 0.041438 0.0035651 0.000999997 301.617 
300 1 0.0429164 0.00497018 0.000999991 301.444 
757 1 0.0450352 0.00455738 0.000999996 300.628 
121 1 0.0464429 0.00313647 0.000999998 300 
2899 1 0.0491937 0.0045982 0.000999981 300.606 
235 1 0.0481355 0.00327053 0.00205706 303.695 
852 1 0.00147344 0.00578054 0.000999994 301.385 
143 1 0.00359123 0.00509717 0.000999997 309.669 
712 1 0.00611097 0.00655139 0.000999995 306.111 
857 1 0.00765647 0.00583318 0.0020467 312.575 
156 1 0.0101032 0.00606745 0.000999991 314.416 
733 1 0.0125017 0.00690655 0.000999988 318.518 
761 1 0.0142903 0.00601044 0.000999998 300 
1306 1 0.0170989 0.00501409 0.000999991 319.168 
1285 1 0.0165016 0.00696741 0.000999998 301.092 
237 1 0.0189814 0.0056897 0.000999997 313.798 
621 1 0.0222928 0.00602882 0.00099999 324.795 
1134 1 0.0242725 0.00631312 0.000999989 324.321 
1154 1 0.028986 0.0067722 0.000999991 322.77 
332 1 0.0310772 0.00569307 0.000999998 300 
404 1 0.0326452 0.00696578 0.000999994 308.441 
1299 1 0.0344553 0.0061151 0.000999994 306.591 
1088 1 0.0366774 0.00592881 0.000999988 318.602 
54 1 0.0390827 0.00538835 0.000999994 303.856 
176 1 0.0410339 0.00582837 0.000999992 301.893 
544 1 0.0455222 0.00651031 0.000999998 300 
469 1 0.0472716 0.00515104 0.000999995 300.184 
14 1 0.048698 0.00655307 0.000999996 300.06 
741 1 0.000999996 0.00772368 0.00100003 300.898 
187 1 0.00278473 0.00862649 0.000999991 302.072 
540 1 0.00401709 0.00705129 0.000999987 305.914 
193 1 0.00477355 0.00896295 0.000999998 300 
253 1 0.0068207 0.00842122 0.000999996 303.437 
959 1 0.00850773 0.00730957 0.000999992 306.39 
328 1 0.0114072 0.00885549 0.000999998 300 
718 1 0.0132987 0.00844915 0.0019926 316.167 
978 1 0.0151909 0.00848408 0.000999991 316.464 
488 1 0.0171399 0.00893312 0.000999991 312.644 
847 1 0.0186891 0.00766823 0.000999992 315.76 
473 1 0.0206937 0.00740163 0.000999998 300 
854 1 0.0226507 0.00799697 0.000999991 326.176 
207 1 0.0263748 0.00739638 0.000999998 300 
513 1 0.0293352 0.00896057 0.00151575 307.672 
651 1 0.0307733 0.00766986 0.000999989 312.911 
1298 1 0.0326488 0.00875108 0.00190147 303.536 
1244 1 0.0353883 0.00770327 0.00177925 314.856 
611 1 0.0372176 0.00791835 0.000999986 306.214 
730 1 0.0393561 0.00755171 0.000999997 302.625 
835 1 0.0417267 0.00744182 0.00195747 310.754 
110 1 0.0436805 0.00766014 0.000999996 301.439 
428 1 0.0469194 0.00795518 0.000999997 300.009 
174 1 0.0497579 0.00825521 0.000999987 300.115 
205 1 0.00100021 0.00991911 0.000999985 300.505 
177 1 0.00272024 0.0104073 0.001908 300.817 
674 1 0.00638342 0.0103728 0.000999989 302.65 
79 1 0.00942032 0.00908922 0.000999998 304.091 
1320 1 0.0104938 0.0103921 0.00207241 308.382 
779 1 0.012119 0.0108494 0.00100017 305.024 
292 1 0.0139551 0.0100566 0.000999991 309.186 
11 1 0.015904 0.0105056 0.00099999 309.656 
50 1 0.0188973 0.00950435 0.00176508 305.631 
1042 1 0.0207436 0.00942884 0.000999998 300.881 
694 1 0.0226224 0.0101149 0.000999989 315.537 
147 1 0.0240051 0.00907428 0.00200252 336.328 
983 1 0.0256274 0.00967679 0.000999989 311.22 
798 1 0.0278229 0.0101635 0.000999996 302.135 
966 1 0.0311269 0.00968438 0.000999995 302.073 
1186 1 0.033815 0.0102344 0.000999995 303.083 
1091 1 0.035782 0.00950263 0.000999993 304.525 
93 1 0.0382867 0.00960858 0.000999998 302.17 
1160 1 0.0399631 0.0106994 0.000999988 300.349 
575 1 0.0411762 0.00910919 0.00099999 302.093 
985 1 0.04312 0.00957997 0.000999996 300.341 
359 1 0.0453271 0.00941899 0.000999995 300.344 
969 1 0.0472618 0.00992566 0.000999998 300.037 
78 1 0.0492059 0.0103951 0.000999992 300.004 
363 1 0.000999994 0.0125472 0.000999995 300.052 
811 1 0.00296408 0.0122886 0.00127469 300.257 
743 1 0.00449491 0.0110312 0.000999993 300.644 
1251 1 0.00600936 0.0123375 0.000999995 300.553 
72 1 0.009055 0.0112752 0.000999994 302.194 
1313 1 0.0110293 0.0125265 0.00099999 302.043 
654 1 0.0139151 0.0120596 0.000999989 306.14 
271 1 0.0178304 0.0110474 0.000999998 300 
15 1 0.0191506 0.0123316 0.00178965 303.822 
215 1 0.0208644 0.0116686 0.00099999 306.225 
420 1 0.0226323 0.0118976 0.00190669 305.996 
449 1 0.0244555 0.012149 0.000999998 300.883 
39 1 0.0263672 0.0115349 0.000999992 303.431 
188 1 0.0295985 0.0111181 0.000999991 305.447 
425 1 0.028129 0.0124814 0.000999992 301.254 
1095 1 0.0312193 0.01229 0.000999998 300 
1227 1 0.033219 0.0122468 0.000999995 300.866 
119 1 0.0353446 0.0122898 0.000999998 300 
650 1 0.0369685 0.0111127 0.000999989 301.905 
1138 1 0.0386186 0.0122428 0.000999992 300.448 
979 1 0.0405124 0.0124274 0.00184388 300.39 
316 1 0.0424185 0.0117035 0.000999998 300.012 
1297 1 0.0443447 0.0111611 0.00099999 300.19 
1206 1 0.046545 0.0118446 0.000999993 300.02 
380 1 0.0484365 0.0121497 0.00157368 300.001 
347 1 0.00209295 0.014 0.00183359 300.043 
309 1 0.00396196 0.014 0.000999998 300.077 
1130 1 0.00566062 0.014 0.00205571 300.315 
807 1 0.00735927 0.014 0.000999991 300.258 
114 1 0.00931258 0.0135525 0.000999993 300.509 
240 1 0.0123816 0.014 0.000999997 301.011 
672 1 0.0144052 0.014 0.000999998 300.64 
729 1 0.0161846 0.014 0.00191321 303.685 
758 1 0.0179409 0.0137147 0.000999996 301.437 
1038 1 0.0199206 0.014 0.000999993 301.229 
81 1 0.0217812 0.0139926 0.00173331 302.751 
676 1 0.0236419 0.0139761 0.000999994 300.95 
534 1 0.0264807 0.0137676 0.000999998 300 
526 1 0.0299137 0.014 0.000999997 300.073 
101 1 0.0322566 0.014 0.000999994 300.572 
1304 1 0.0342566 0.014 0.00099999 300.784 
1171 1 0.0370892 0.0138995 0.000999998 300 
442 1 0.0396097 0.014 0.000999989 300.173 
348 1 0.0423239 0.0137106 0.000999998 300 
626 1 0.0443208 0.014 0.000999994 300.01 
935 1 0.0466617 0.0139418 0.000999998 300 
766 1 0.0489339 0.014 0.000999995 300 
728 1 0.00392052 -0.014 0.00238429 301.397 
1249 1 0.00256444 -0.0132265 0.00363435 304.501 
929 1 0.00450257 -0.0131416 0.00412055 307.614 
1137 1 0.00634469 -0.014 0.00274303 304.338 
1097 1 0.0078871 -0.0133954 0.0038635 316.753 
598 1 0.0095839 -0.014 0.0029944 309.572 
1056 1 0.0115791 -0.014 0.0031329 310.683 
747 1 0.0135702 -0.014 0.00294461 304.559 
1337 1 0.0162623 -0.0135725 0.00273454 301.944 
789 1 0.0184969 -0.014 0.00263796 312.973 
894 1 0.0203583 -0.014 0.00336963 311.202 
507 1 0.0220847 -0.0132262 0.00272104 306.44 
170 1 0.0250702 -0.014 0.00238244 303.937 
993 1 0.0240141 -0.0139722 0.00408059 316.967 
1048 1 0.0275175 -0.0134232 0.00263438 307.288 
1267 1 0.0262053 -0.014 0.00402915 301.704 
43 1 0.0295 -0.014 0.00274091 302.493 
1169 1 0.0312288 -0.014 0.00374657 308.685 
1008 1 0.0331407 -0.0134146 0.0037886 302.628 
1168 1 0.0342309 -0.014 0.00221734 301.283 
288 1 0.0350354 -0.014 0.00404837 303.122 
158 1 0.0375146 -0.014 0.00317125 300.103 
47 1 0.0406544 -0.0133617 0.00269294 301.433 
274 1 0.0425983 -0.014 0.00386091 301.144 
652 1 0.0441287 -0.014 0.00257328 300.181 
689 1 0.0463276 -0.014 0.00275222 300.004 
1184 1 0.0483371 -0.014 0.00274697 300.002 
1026 1 0.000999991 -0.0126891 0.00251021 301.759 
261 1 0.000999995 -0.011326 0.00397369 304.623 
1343 1 0.00301409 -0.0113076 0.00397475 312.506 
87 1 0.00423913 -0.0120312 0.0022356 301.239 
355 1 0.00504244 -0.0112267 0.00391614 316.668 
1208 1 0.00656471 -0.0120234 0.00253146 302.083 
22 1 0.00843274 -0.011079 0.00371936 324.292 
378 1 0.0101037 -0.0120919 0.00329275 311.167 
1220 1 0.0128444 -0.012285 0.00367402 309.641 
4 1 0.0145348 -0.0124065 0.00221646 304.804 
336 1 0.015519 -0.0118383 0.00386221 306.209 
622 1 0.0176585 -0.0122282 0.00224094 304.527 
1077 1 0.0174136 -0.0112732 0.00416425 320.905 
736 1 0.0189909 -0.012447 0.00379728 346.954 
681 1 0.0203697 -0.0122626 0.00236006 302.013 
859 1 0.022665 -0.0115618 0.00410205 329.517 
806 1 0.0239103 -0.0124121 0.00278814 314.638 
1152 1 0.0260548 -0.0120702 0.00246214 313.828 
999 1 0.0279366 -0.0119296 0.00389669 310.977 
1316 1 0.0289735 -0.011821 0.0021899 308.052 
797 1 0.029953 -0.0124734 0.00395094 308.212 
1264 1 0.0315301 -0.0122716 0.00273395 300.906 
20 1 0.0336445 -0.0118753 0.00261523 313.559 
1336 1 0.0350723 -0.0118548 0.00401562 305.033 
1126 1 0.0354465 -0.0110244 0.00213404 305.687 
233 1 0.0359508 -0.0129117 0.00256269 300.714 
450 1 0.0369507 -0.0113847 0.00340195 305.887 
160 1 0.0392319 -0.0123737 0.00369314 309.18 
724 1 0.0409925 -0.0114286 0.00230715 306.064 
876 1 0.0419024 -0.0120667 0.00396995 305.66 
872 1 0.0425493 -0.0128203 0.00223337 300.126 
704 1 0.0449215 -0.0120423 0.00276611 300.082 
945 1 0.0469145 -0.0120959 0.00292509 300.029 
221 1 0.0489219 -0.0120878 0.00278378 300.032 
1245 1 0.000999993 -0.00928449 0.00395345 308.542 
744 1 0.00199872 -0.0103191 0.00256345 306.629 
635 1 0.00390569 -0.00984746 0.00293895 315.226 
136 1 0.00590224 -0.00974057 0.00289044 318.584 
418 1 0.00782929 -0.00974667 0.00235529 318.737 
1057 1 0.0112144 -0.00913699 0.00230648 315.077 
259 1 0.0102857 -0.010154 0.00396539 347.798 
1318 1 0.0125372 -0.0106075 0.00262928 336.142 
725 1 0.0121185 -0.00937428 0.00414712 389.469 
1205 1 0.0144017 -0.00990101 0.00247217 347.556 
422 1 0.0163222 -0.0103914 0.00273907 319.705 
924 1 0.0183927 -0.0103733 0.00267041 327.326 
395 1 0.0200087 -0.0107212 0.00379621 326.461 
1195 1 0.0205045 -0.00947314 0.00231414 312.286 
500 1 0.0225748 -0.0102262 0.0026161 320.132 
213 1 0.0246572 -0.0105577 0.00272838 310.769 
909 1 0.0263344 -0.0095128 0.00242 328.769 
740 1 0.0265318 -0.0105259 0.00413308 340.744 
521 1 0.0284821 -0.00929895 0.00254496 334.777 
997 1 0.0297075 -0.0105331 0.00353251 330.19 
445 1 0.0304806 -0.00911342 0.00235493 328.31 
1261 1 0.0322714 -0.0104207 0.00289093 303.017 
529 1 0.0340991 -0.00964259 0.00265859 322 
277 1 0.0355513 -0.00991304 0.00402491 323.773 
124 1 0.0367214 -0.00947922 0.002462 316.993 
960 1 0.0385169 -0.0102744 0.00284128 314.327 
510 1 0.0401572 -0.0106169 0.00393302 341.133 
533 1 0.0434256 -0.0107171 0.00268929 301.169 
552 1 0.044975 -0.00945352 0.0026339 303.988 
697 1 0.0458235 -0.0106606 0.00398403 303.498 
440 1 0.0475928 -0.00981798 0.00358448 301.153 
1021 1 0.0490805 -0.0100354 0.00226562 300.161 
95 1 0.0495155 -0.0105984 0.00413479 300.549 
564 1 0.00099999 -0.00828587 0.00219099 306.905 
1178 1 0.00294431 -0.00812116 0.0026297 307.787 
1005 1 0.00493772 -0.00799531 0.00273643 335.86 
284 1 0.00642498 -0.00807971 0.00407095 349.904 
27 1 0.00807073 -0.00718883 0.00266529 354.218 
344 1 0.00938651 -0.00866083 0.00298457 339.096 
455 1 0.0105623 -0.00708018 0.00263943 356.053 
636 1 0.0124312 -0.00770239 0.00298568 346.377 
1006 1 0.0139625 -0.00858986 0.00391714 389.681 
457 1 0.0154895 -0.00790228 0.00238508 306.709 
719 1 0.0174886 -0.00898444 0.00379015 372.397 
970 1 0.0173748 -0.00710733 0.00303941 336.04 
179 1 0.019032 -0.00819104 0.00275844 352.994 
138 1 0.0218439 -0.00861733 0.00355266 360.737 
818 1 0.0203462 -0.00738063 0.00402971 417.703 
246 1 0.0236322 -0.00852863 0.00260825 320.236 
52 1 0.0251761 -0.00874884 0.00386041 361.96 
788 1 0.0270982 -0.00816529 0.00368523 356.842 
988 1 0.028116 -0.00722336 0.00224411 350.84 
490 1 0.0294674 -0.00792801 0.00361716 353.936 
84 1 0.031579 -0.00882185 0.0040007 389.923 
574 1 0.0326897 -0.00787248 0.00263506 319.157 
1270 1 0.0346324 -0.00763772 0.00222151 313.316 
890 1 0.0361877 -0.00783246 0.00346367 347.059 
51 1 0.0380266 -0.00798128 0.00269142 327.688 
631 1 0.0399048 -0.00892272 0.00234495 302.692 
96 1 0.0393912 -0.00787195 0.00414942 365.536 
511 1 0.0410111 -0.00732224 0.00280826 303.126 
466 1 0.041122 -0.00887299 0.00410041 364.872 
1303 1 0.0421003 -0.00893786 0.00235721 311.721 
958 1 0.0436162 -0.00824038 0.00345969 323.204 
801 1 0.0466159 -0.00823817 0.00279014 302.915 
12 1 0.0485517 -0.00783185 0.00249456 300.34 
1322 1 0.00166231 -0.00652449 0.00286836 321.506 
1341 1 0.00396419 -0.00627271 0.00244508 325.997 
558 1 0.00510905 -0.00651309 0.00406821 384.674 
1255 1 0.00617585 -0.0056989 0.0025853 343.339 
56 1 0.00920399 -0.00554256 0.00273928 375.061 
1328 1 0.0124008 -0.00589791 0.00386145 440.632 
981 1 0.0141383 -0.00669754 0.00326137 357.666 
63 1 0.016488 -0.00538171 0.00255375 356.021 
942 1 0.0197866 -0.00626282 0.00246853 367.657 
1115 1 0.0187325 -0.00616465 0.0041654 424.055 
394 1 0.0204476 -0.00512481 0.00397452 356.062 
433 1 0.0221624 -0.00664013 0.00363846 434.605 
1004 1 0.0238057 -0.00623755 0.0025719 369.337 
957 1 0.0256907 -0.00562412 0.0028533 323.153 
436 1 0.0276169 -0.00518118 0.0025475 364.57 
769 1 0.0283152 -0.00634638 0.0040305 435.064 
141 1 0.0300155 -0.00540323 0.00326521 354.865 
59 1 0.0319484 -0.00601689 0.00271977 322.138 
104 1 0.0339034 -0.00541545 0.00219479 309.317 
489 1 0.0353605 -0.00612222 0.00408883 359.859 
1166 1 0.0366481 -0.00613693 0.00250276 303.478 
58 1 0.0378524 -0.00653306 0.00405974 355.552 
593 1 0.0392466 -0.00639765 0.00263055 312.089 
897 1 0.041185 -0.00533196 0.00253628 323.165 
1 1 0.0428685 -0.00661072 0.0025736 304.361 
759 1 0.0446992 -0.00576291 0.00298167 309.722 
396 1 0.0462771 -0.0066257 0.00392378 318.539 
1234 1 0.0482705 -0.00512445 0.00266 300.612 
3839 1 0.0498275 -0.00635211 0.00292208 301.109 
539 1 0.000999991 -0.00463755 0.00284091 313.226 
502 1 0.0028692 -0.00496099 0.00348449 318.821 
1090 1 0.00241806 -0.00326162 0.00253127 315.707 
666 1 0.00465322 -0.00440221 0.00271947 322.798 
102 1 0.00755571 -0.00396157 0.00273142 361.313 
263 1 0.00952789 -0.00357948 0.00294262 401.419 
659 1 0.0111076 -0.00492458 0.00267413 326.732 
61 1 0.0132155 -0.00474062 0.00244835 362.146 
701 1 0.014857 -0.00485586 0.003585 399.609 
968 1 0.0144952 -0.00320426 0.00249262 353.684 
949 1 0.0164875 -0.00336364 0.00242094 337.327 
815 1 0.0184075 -0.00482756 0.00266398 357.186 
941 1 0.0219151 -0.00493099 0.00262965 347.105 
793 1 0.0203805 -0.00364863 0.00260586 353.385 
371 1 0.0217992 -0.00348212 0.00400576 473.136 
437 1 0.0237219 -0.00436751 0.00327611 342.346 
232 1 0.0256883 -0.00374046 0.00360621 357.581 
1053 1 0.0274331 -0.0032043 0.00278871 326.999 
1113 1 0.0294168 -0.00367225 0.0024619 360.947 
239 1 0.0285386 -0.00436099 0.00412155 466.131 
125 1 0.0313661 -0.00411936 0.00247416 323.677 
503 1 0.0305202 -0.00320882 0.00406428 397.179 
685 1 0.0338027 -0.00315327 0.00216831 312.101 
1183 1 0.0329001 -0.00455259 0.00369441 316.04 
607 1 0.0355435 -0.00451931 0.00290681 333.549 
670 1 0.0344352 -0.0033252 0.00406679 409.928 
337 1 0.0372277 -0.00348272 0.00320522 330.736 
1129 1 0.0385362 -0.00458563 0.00217014 309.672 
731 1 0.0397943 -0.0039422 0.00358553 366.499 
571 1 0.0429846 -0.00447594 0.00270542 304.641 
971 1 0.0428698 -0.00304037 0.00409671 339.054 
708 1 0.0447234 -0.00389631 0.00371446 304.614 
886 1 0.0466457 -0.00466918 0.00373368 302.327 
1181 1 0.0478672 -0.0031672 0.00257964 301.442 
7 1 0.000999995 -0.00224926 0.00351349 327.714 
194 1 0.00444504 -0.00241389 0.00266259 349.224 
824 1 0.00663811 -0.002199 0.00250483 343.808 
850 1 0.00789364 -0.0024833 0.00403545 354.741 
520 1 0.00878403 -0.00181657 0.00236061 362.346 
1122 1 0.011365 -0.00295271 0.00246086 364.046 
1071 1 0.0110248 -0.00157098 0.0038662 415.409 
1326 1 0.0128951 -0.00189142 0.00319063 368.226 
592 1 0.0149515 -0.00128289 0.00280888 353.172 
251 1 0.0169801 -0.001426 0.00247444 325.491 
702 1 0.0161354 -0.00228746 0.00406953 319.536 
1149 1 0.0180125 -0.00280077 0.00358607 403.704 
379 1 0.0189674 -0.00158635 0.00231587 338.805 
1284 1 0.0210353 -0.00176092 0.00269408 369.628 
794 1 0.0227832 -0.00284188 0.00238658 370.564 
448 1 0.0225297 -0.0013417 0.0039554 413.291 
1114 1 0.0242126 -0.00239472 0.00371208 433.727 
1335 1 0.0270199 -0.00120829 0.00282432 411.28 
687 1 0.0291767 -0.00168212 0.00229324 363.715 
753 1 0.0287052 -0.00236798 0.00411184 457.521 
628 1 0.0312942 -0.00143576 0.00223057 313.532 
937 1 0.0323336 -0.00265285 0.00342984 349.852 
637 1 0.0355118 -0.00215918 0.00284971 338.838 
998 1 0.0373732 -0.001489 0.00314284 317.088 
128 1 0.0393168 -0.00208354 0.00264561 309.285 
871 1 0.0411969 -0.00260098 0.00308983 302.305 
992 1 0.0426257 -0.00120919 0.00294356 303.953 
587 1 0.0438385 -0.00269671 0.00238109 308.411 
710 1 0.0445866 -0.00189194 0.0040522 326.693 
512 1 0.0461727 -0.00207084 0.00270327 300.231 
21 1 0.0478069 -0.00170423 0.00394202 309.394 
1170 1 0.0495766 -0.00258666 0.00344025 306.528 
822 1 0.000999987 -0.000473589 0.00259319 316.862 
109 1 0.0024542 -0.000832872 0.00391839 360.683 
528 1 0.00578114 -0.000842966 0.00394346 446.155 
242 1 0.00411277 -0.000225061 0.00285187 329.246 
144 1 0.00763281 -0.000245222 0.00300108 352.979 
1192 1 0.00914761 -0.000927255 0.00411472 407.146 
419 1 0.00945075 0.000512878 0.0026542 353.038 
412 1 0.0112445 -0.000305026 0.0023172 312.218 
1076 1 0.0126516 8.4254e-06 0.00379379 382.574 
62 1 0.0149188 0.000712616 0.0026792 356.163 
296 1 0.0169126 0.000567618 0.00261911 355.071 
1125 1 0.0179476 -0.000535511 0.00398153 370.692 
229 1 0.0189022 0.000404401 0.0024965 352.054 
1121 1 0.0207436 0.000143193 0.00323189 368.108 
1269 1 0.0233602 0.000450973 0.00361969 432.127 
182 1 0.0248598 -0.000777839 0.00272881 327.766 
438 1 0.0259157 0.000919027 0.00280466 392.243 
1194 1 0.0286065 0.000232978 0.00237905 357.619 
896 1 0.0318096 -0.000830484 0.00406577 392.43 
1030 1 0.0305119 0.000242498 0.00298658 347.107 
334 1 0.033172 -0.000725086 0.00260031 301.917 
19 1 0.0356439 -0.00022773 0.00234772 337.911 
65 1 0.0377027 0.000305464 0.00232351 314.095 
1120 1 0.0390534 -0.000489579 0.00382456 342.185 
1079 1 0.0395763 0.00096548 0.00255594 312.511 
1268 1 0.0407291 -0.00066785 0.0026123 310.949 
267 1 0.0425149 0.000767667 0.00266122 306.082 
307 1 0.0436758 2.84904e-05 0.00411238 347.294 
640 1 0.0445885 -0.000664407 0.00247324 309.623 
1235 1 0.0459945 0.00043435 0.00337651 303.191 
559 1 0.0474154 -0.000541394 0.0023621 300.258 
70 1 0.0493083 -0.000516063 0.00336394 301.55 
777 1 0.000999995 0.00110825 0.00381703 314.09 
471 1 0.000999996 0.00219067 0.00213525 309.838 
1043 1 0.00259936 0.0010612 0.00261711 326.227 
1165 1 0.0043985 0.00192522 0.00248846 346.782 
1342 1 0.00615918 0.00122393 0.00312734 353.504 
948 1 0.00824989 0.00209418 0.00238418 321.712 
73 1 0.00954494 0.00198347 0.0040064 379.423 
505 1 0.0109079 0.00187772 0.00253671 314.316 
921 1 0.0128894 0.00162969 0.00264707 312.574 
698 1 0.0148031 0.00263621 0.00214408 345.645 
542 1 0.0161275 0.00214771 0.00356089 349.018 
202 1 0.0179548 0.00149021 0.00405531 414.783 
1312 1 0.0198177 0.00190183 0.00345535 400.191 
1100 1 0.0218928 0.00199069 0.0026682 377.832 
902 1 0.024654 0.0020511 0.00386609 422.295 
715 1 0.0275718 0.00203697 0.00271739 377.863 
209 1 0.0292263 0.00157551 0.00374179 393.141 
68 1 0.030945 0.00242399 0.00317064 337.054 
189 1 0.0323332 0.0010903 0.00262827 311.978 
122 1 0.0331342 0.00221269 0.00408336 330.896 
1112 1 0.0343195 0.0011875 0.00284081 315.205 
1259 1 0.0371473 0.00244187 0.00221728 329.446 
570 1 0.0366618 0.0011466 0.00380976 347.879 