ITEM: TIMESTEP
20000000
ITEM: NUMBER OF ATOMS
5000
ITEM: BOX BOUNDS mm mm mm
0 0.1
-0.015 0.015
0 0.3
ITEM: ATOMS id type x y z f_Temp[0] 
977 1 0.00102825 -0.014 0.000999993 301.854 
581 1 0.00280538 -0.013082 0.000999998 300 
980 1 0.00536401 -0.0139934 0.000999992 304.241 
1252 1 0.00736682 -0.0139976 0.000999998 300 
648 1 0.00943464 -0.014 0.000999991 307.242 
1049 1 0.0114353 -0.0139953 0.000999998 300 
585 1 0.0133901 -0.013565 0.000999998 300 
453 1 0.0153494 -0.0139698 0.000999997 302.234 
812 1 0.0173493 -0.0139998 0.000999993 309.122 
1111 1 0.0195007 -0.0134438 0.000999984 309.433 
713 1 0.021422 -0.014 0.000999994 306.688 
1065 1 0.0234048 -0.014 0.00126756 303.904 
82 1 0.0265155 -0.0139931 0.000999994 311.598 
383 1 0.0285156 -0.014 0.000999992 309.273 
930 1 0.030521 -0.014 0.000999997 306.491 
936 1 0.0322405 -0.014 0.00202133 312.081 
1185 1 0.0365621 -0.014 0.000999997 303.749 
961 1 0.0387276 -0.014 0.00158109 313.247 
397 1 0.0415067 -0.014 0.000999998 308.856 
434 1 0.0453634 -0.0139995 0.000999989 306.689 
845 1 0.0473634 -0.013996 0.000999993 303.553 
69 1 0.0493634 -0.014 0.000999998 300 
775 1 0.00100002 -0.0113754 0.000999998 300 
100 1 0.0029795 -0.0110896 0.000999992 306.166 
914 1 0.00557519 -0.0112015 0.00100005 310.156 
80 1 0.00757517 -0.0111953 0.000999991 313.756 
451 1 0.00998402 -0.0120769 0.000999996 315.862 
796 1 0.00840292 -0.0126653 0.00207425 308.292 
693 1 0.0116631 -0.012314 0.00206038 326.354 
1317 1 0.0131863 -0.0115688 0.000999987 321.322 
915 1 0.0160944 -0.0121103 0.000999994 312.645 
410 1 0.0190455 -0.011496 0.000999996 311.986 
830 1 0.0224371 -0.0122702 0.000999998 300.921 
320 1 0.0247898 -0.0125822 0.000999992 313.556 
112 1 0.0274126 -0.0122056 0.000999996 317.645 
75 1 0.0305709 -0.0120006 0.000999993 316.206 
44 1 0.0325472 -0.012308 0.000999993 311.046 
903 1 0.0346614 -0.0124727 0.000999987 321.348 
501 1 0.0399655 -0.0125406 0.000999994 318.932 
606 1 0.0381813 -0.0121244 0.00200969 334.993 
895 1 0.0424953 -0.0112468 0.000999991 324.217 
98 1 0.0440827 -0.0124633 0.000999998 311.546 
591 1 0.0463627 -0.0121893 0.000999998 300 
260 1 0.0483399 -0.0113954 0.000999988 321.052 
341 1 0.00236835 -0.00912792 0.000999989 307.971 
781 1 0.00434315 -0.00962605 0.00099999 313.227 
163 1 0.00630249 -0.00922482 0.000999992 317.56 
180 1 0.00969329 -0.0104144 0.00207298 346.298 
657 1 0.0113778 -0.0106424 0.000999994 316.63 
479 1 0.0130888 -0.00957115 0.00099999 326.173 
1334 1 0.0156328 -0.00933789 0.000999989 333.676 
236 1 0.0173021 -0.0105161 0.00100003 328.75 
463 1 0.0189969 -0.0094543 0.000999987 332.799 
1058 1 0.020961 -0.0109208 0.000999997 310.132 
214 1 0.021988 -0.00920459 0.000999991 333.082 
48 1 0.0236592 -0.010687 0.000999996 323.349 
1001 1 0.0256579 -0.0107646 0.000999989 320.339 
157 1 0.0275721 -0.0101849 0.00099999 338.349 
154 1 0.0295703 -0.010269 0.000999998 335.821 
849 1 0.0316899 -0.0101271 0.000999998 305.872 
986 1 0.0337356 -0.0106994 0.000999992 327.498 
352 1 0.0353603 -0.00937906 0.000999998 336.11 
391 1 0.037078 -0.0107965 0.00099999 333.12 
828 1 0.0380495 -0.00904828 0.000999991 346.091 
1302 1 0.0391669 -0.010707 0.000999988 330.721 
1153 1 0.0410033 -0.00991491 0.000999992 336.915 
1029 1 0.0435086 -0.00935559 0.000999995 330.779 
734 1 0.0450013 -0.0106867 0.000999997 315.916 
168 1 0.0467898 -0.0104128 0.001852 332.646 
673 1 0.0479253 -0.00900397 0.000999991 332.041 
230 1 0.00208414 -0.00710001 0.000999993 316.511 
962 1 0.00400567 -0.00765473 0.000999989 323.321 
829 1 0.00807393 -0.0082964 0.000999989 331.289 
409 1 0.0100683 -0.00814704 0.00100015 328.57 
524 1 0.0120481 -0.00786324 0.000999994 323.784 
1221 1 0.0140493 -0.00781584 0.000999998 305.339 
1092 1 0.0173393 -0.0086903 0.00181755 358.169 
461 1 0.016624 -0.00701102 0.000999992 331.857 
1062 1 0.0197951 -0.00762048 0.000999986 353.139 
790 1 0.0215614 -0.00748521 0.00192831 380.902 
200 1 0.0233297 -0.00737885 0.000999993 352.634 
602 1 0.0247258 -0.00899514 0.000999997 320.305 
546 1 0.0254076 -0.0074302 0.00204216 329.123 
1240 1 0.0269157 -0.00822994 0.000999998 311.077 
247 1 0.0292594 -0.00829331 0.00099999 350.905 
973 1 0.0315646 -0.00811889 0.00099999 338.405 
1319 1 0.0334732 -0.00871669 0.000999992 338.984 
947 1 0.0365133 -0.00779137 0.00138712 320.526 
238 1 0.0398083 -0.00744564 0.000999998 328.919 
162 1 0.0418495 -0.00748745 0.000999997 318.73 
367 1 0.0444121 -0.00769988 0.0016651 333.042 
1274 1 0.0459344 -0.00881346 0.000999986 345.441 
1074 1 0.0498517 -0.00837803 0.000999998 300 
28 1 0.0010002 -0.00541922 0.000999994 309.597 
956 1 0.00299504 -0.00525864 0.000999998 300 
134 1 0.00500411 -0.00536152 0.000999994 331.574 
825 1 0.00684751 -0.00671657 0.000999995 329.442 
976 1 0.00894151 -0.00649438 0.000999994 341.877 
169 1 0.0109715 -0.00601028 0.000999993 341.681 
556 1 0.0129962 -0.00610228 0.000999995 342.583 
421 1 0.0149261 -0.00609382 0.001525 348.472 
1217 1 0.0184323 -0.00615665 0.000999998 336.763 
1325 1 0.0210608 -0.00573741 0.000999998 300 
496 1 0.0230199 -0.00528279 0.000999996 358.131 
639 1 0.024956 -0.005784 0.00099999 354.01 
1151 1 0.0269057 -0.0062297 0.000999984 353.836 
443 1 0.0289793 -0.00544598 0.000999998 300 
1231 1 0.0310306 -0.00545217 0.000999998 300 
146 1 0.0303193 -0.00698151 0.00207498 381.753 
1290 1 0.0330366 -0.00676492 0.000999997 329.184 
1075 1 0.0353259 -0.00621403 0.000999995 328.958 
618 1 0.038025 -0.00654034 0.000999998 309.214 
83 1 0.0399098 -0.00544822 0.000999985 352.994 
974 1 0.0424605 -0.00544572 0.000999991 349.512 
1289 1 0.0449382 -0.00588859 0.000999992 341.136 
772 1 0.0466402 -0.00609637 0.0020296 369.273 
530 1 0.0482999 -0.00652692 0.000999994 334.467 
283 1 0.00371057 -0.00338742 0.000999998 300 
750 1 0.00569458 -0.00311854 0.000999998 300.003 
234 1 0.00689912 -0.00471724 0.000999994 342.249 
1025 1 0.00808683 -0.00310799 0.000999998 300 
139 1 0.00957632 -0.00451692 0.000999998 300 
791 1 0.0119528 -0.0041857 0.000999985 357.273 
402 1 0.0153626 -0.004214 0.000999994 343.319 
1087 1 0.017357 -0.00447035 0.000999991 352.71 
519 1 0.0193899 -0.00431182 0.000999993 358.577 
275 1 0.0216938 -0.00378558 0.000999994 342.985 
142 1 0.0249492 -0.00393316 0.00175782 376.22 
90 1 0.0267754 -0.00423396 0.000999996 346.931 
492 1 0.032699 -0.00434362 0.000999993 337.743 
749 1 0.0350091 -0.00423928 0.000999994 342.15 
1187 1 0.0369358 -0.00484893 0.000999997 322.363 
175 1 0.0402006 -0.00358298 0.00166048 368.729 
1050 1 0.0420853 -0.00347573 0.000999995 330.184 
846 1 0.0439728 -0.00413701 0.000999988 341.639 
424 1 0.0456873 -0.00431841 0.00201368 351.082 
1243 1 0.0474114 -0.00430605 0.000999998 331.785 
3721 1 0.0493439 -0.00482097 0.000999988 328.246 
77 1 0.00106484 -0.00207861 0.000999998 300 
37 1 0.00269634 -0.00135299 0.00200246 340.478 
1108 1 0.00442621 -0.00130241 0.000999983 338.784 
385 1 0.0074663 -0.0011745 0.000999988 345.534 
89 1 0.0100508 -0.00255562 0.000999998 300 
318 1 0.0118586 -0.00167902 0.000999998 328.506 
32 1 0.0138228 -0.00205531 0.000999998 325.379 
964 1 0.0158217 -0.00212183 0.000999998 319.914 
1180 1 0.0177825 -0.00251614 0.000999993 339.375 
885 1 0.0201852 -0.00247261 0.000999997 346.6 
264 1 0.0220832 -0.00158202 0.000999986 369.255 
258 1 0.0241116 -0.00228266 0.001 380.359 
291 1 0.0258098 -0.00110755 0.000999998 332.186 
1052 1 0.0282802 -0.00291658 0.000999992 366.963 
486 1 0.0304223 -0.00274938 0.000999993 351.1 
401 1 0.0328101 -0.00186878 0.000999996 327.422 
91 1 0.0348112 -0.00186302 0.00099999 342.035 
1248 1 0.0364864 -0.00291987 0.00127711 331.28 
1196 1 0.0384654 -0.00283657 0.000999995 328.111 
351 1 0.0409167 -0.00183629 0.000999995 337.613 
1003 1 0.0429073 -0.00158968 0.000999997 328.192 
545 1 0.0452833 -0.00262575 0.000999997 333.864 
31 1 0.0472197 -0.00212533 0.000999991 326.396 
1027 1 0.0491105 -0.00283465 0.000999996 310.412 
620 1 0.00150677 0.000624044 0.000999984 319.101 
817 1 0.00370965 0.000569646 0.000999998 300 
127 1 0.00591125 -0.000406584 0.00199601 373.716 
306 1 0.00756563 0.000823028 0.000999994 325.933 
167 1 0.00960301 -0.000600847 0.000999992 348.793 
721 1 0.0132144 -0.000384327 0.00191523 393.651 
33 1 0.0157871 -0.000111309 0.000999998 300 
522 1 0.0178041 -0.00035105 0.000999998 300 
1330 1 0.0201725 -0.000472047 0.000999998 300 
624 1 0.0239822 -0.000286865 0.000999988 364.524 
799 1 0.0222849 0.000162791 0.00195755 401.305 
644 1 0.0278053 -0.000973797 0.000999988 372.337 
181 1 0.0267602 0.000746115 0.000999994 365.319 
289 1 0.0300684 -0.000444246 0.000999989 353.636 
899 1 0.0320249 -2.93762e-05 0.000999997 324.178 
184 1 0.0341146 1.68772e-05 0.000999998 305.055 
1191 1 0.0369446 -0.000988252 0.000999998 311.953 
625 1 0.0395898 -0.000291052 0.000999998 319.842 
250 1 0.0417007 7.81932e-06 0.000999996 334.265 
1247 1 0.0440456 0.000574442 0.000999991 338.44 
518 1 0.045939 -0.000588995 0.000999992 342.167 
198 1 0.0476838 0.000898649 0.000999998 300 
527 1 0.0488465 -0.000852146 0.000999995 315.599 
904 1 0.0494914 0.00083641 0.00185608 342.009 
305 1 0.00264916 0.00226565 0.00100002 325.003 
408 1 0.00557638 0.00129512 0.000999993 343.694 
1037 1 0.00643218 0.00282586 0.00196146 364.669 
1054 1 0.00968458 0.00225442 0.000999996 324.923 
310 1 0.0118962 0.00105155 0.000999998 309.631 
364 1 0.0129022 0.00293552 0.000999998 316.418 
392 1 0.0139525 0.00123354 0.000999991 348.528 
430 1 0.0169059 0.00174167 0.000999993 350.762 
723 1 0.0189959 0.0017279 0.000999992 345.099 
279 1 0.0209923 0.00135248 0.000999998 300 
1099 1 0.0248586 0.00295496 0.000999993 358.925 
1044 1 0.0241312 0.00141222 0.00204443 413.479 
1226 1 0.0268526 0.0027672 0.000999989 378.19 
474 1 0.0285332 0.00167963 0.000999992 354.379 
1175 1 0.0304799 0.00146998 0.0014079 367.741 
280 1 0.033244 0.00181831 0.000999998 312.94 
476 1 0.0350733 0.0024588 0.0014934 348.538 
735 1 0.0363974 0.00104339 0.000999985 360.53 
311 1 0.0384834 0.00158561 0.000999987 358.656 
562 1 0.0405308 0.00178272 0.000999989 346.328 
197 1 0.0425283 0.0018813 0.000999995 328.267 
615 1 0.0443907 0.00261031 0.000999986 341.528 
568 1 0.0458138 0.00132471 0.00156747 368.466 
1197 1 0.0497082 0.00263088 0.000999994 338.291 
366 1 0.00100063 0.00383724 0.000999997 305.998 
920 1 0.0043839 0.00326097 0.00099999 326.489 
1036 1 0.00644525 0.00457953 0.000999989 327.061 
314 1 0.00844644 0.00420204 0.000999998 300 
1224 1 0.0104826 0.00408961 0.000999992 336.091 
1124 1 0.0123036 0.0049164 0.000999992 343.2 
1286 1 0.0152051 0.00422662 0.000999983 353.762 
972 1 0.0186014 0.00369399 0.000999996 327.527 
493 1 0.0202753 0.0030119 0.00185588 395.008 
939 1 0.02075 0.00475605 0.000999988 365.115 
923 1 0.0220823 0.00307749 0.000999993 354.806 
241 1 0.0235323 0.00445514 0.00099999 367.199 
322 1 0.0254857 0.00479463 0.00147149 374.347 
485 1 0.0274261 0.00468323 0.000999995 352.826 
814 1 0.0294225 0.00456453 0.000999989 359.621 
1229 1 0.031651 0.00303909 0.000999991 352.298 
879 1 0.0329331 0.00472676 0.000999998 300 
1019 1 0.0354244 0.00436559 0.000999992 344.453 
26 1 0.0374497 0.00408387 0.000999998 300 
946 1 0.0393305 0.00340354 0.000999998 314.573 
1314 1 0.041438 0.0035651 0.000999997 331.688 
300 1 0.0429164 0.00497018 0.000999991 337.878 
757 1 0.0450353 0.00455743 0.000999996 327.274 
121 1 0.0464429 0.00313648 0.000999998 300 
2899 1 0.0491937 0.0045982 0.000999981 345.389 
235 1 0.0481355 0.00327053 0.00205706 375.308 
852 1 0.00147344 0.00578054 0.000999994 304.124 
143 1 0.00359123 0.00509717 0.000999997 319.802 
712 1 0.00611097 0.00655139 0.000999995 318.437 
857 1 0.00765647 0.00583318 0.0020467 336.525 
156 1 0.0101027 0.00606713 0.000999991 332.762 
733 1 0.0125017 0.00690655 0.000999988 341.01 
761 1 0.0142907 0.00601073 0.000999998 300 
1306 1 0.0170989 0.00501409 0.000999991 337.775 
1285 1 0.0165013 0.00696627 0.000999998 308.759 
237 1 0.0189814 0.0056897 0.000999997 334.013 
621 1 0.0222928 0.00602882 0.00099999 350.421 
1134 1 0.0242725 0.00631312 0.000999989 355.161 
1154 1 0.028986 0.0067722 0.000999991 356.599 
332 1 0.0310772 0.00569306 0.000999998 300 
404 1 0.0326452 0.00696578 0.000999994 338.403 
1299 1 0.0344553 0.0061151 0.000999994 336.845 
1088 1 0.0366774 0.00592881 0.000999988 368.018 
54 1 0.0390828 0.00538836 0.000999994 334.441 
176 1 0.0410339 0.00582837 0.000999992 330.867 
544 1 0.0455155 0.00651429 0.000999998 300 
469 1 0.0472716 0.00515104 0.000999995 322.404 
14 1 0.0486979 0.00655309 0.000999996 327.673 
741 1 0.000999996 0.00772368 0.00100003 303.748 
187 1 0.00278473 0.00862649 0.000999991 307.407 
540 1 0.00401709 0.00705129 0.000999987 314.123 
193 1 0.00477719 0.00895783 0.000999998 300 
253 1 0.0068207 0.00842122 0.000999996 313.692 
959 1 0.00850773 0.00730957 0.000999992 321.819 
328 1 0.0114071 0.0088506 0.000999998 300 
718 1 0.0132987 0.00844915 0.0019926 343.008 
978 1 0.0151909 0.00848408 0.000999991 334.954 
488 1 0.0171399 0.00893312 0.000999991 330.578 
847 1 0.0186891 0.00766823 0.000999992 336.955 
473 1 0.0206946 0.00740126 0.000999998 300 
854 1 0.0226507 0.00799697 0.000999991 356.144 
207 1 0.026375 0.00739618 0.000999998 300.168 
513 1 0.0293352 0.00896057 0.00151575 332.771 
651 1 0.0307733 0.00766986 0.000999989 339.857 
1298 1 0.0326488 0.00875108 0.00190147 333.502 
1244 1 0.0353883 0.00770327 0.00177925 371.787 
611 1 0.0372176 0.00791835 0.000999986 342.12 
730 1 0.0393596 0.00754693 0.000999997 328.926 
835 1 0.0417267 0.00744182 0.00195747 375.604 
110 1 0.0436805 0.00766014 0.000999996 327.032 
428 1 0.0469194 0.00795518 0.000999997 305.327 
174 1 0.0497579 0.00825521 0.000999987 337.36 
205 1 0.00100021 0.00991911 0.000999985 302.52 
177 1 0.00272024 0.0104073 0.001908 304.905 
674 1 0.00638342 0.0103728 0.000999989 310.077 
79 1 0.00942032 0.00908922 0.000999998 317.725 
1320 1 0.0104938 0.0103921 0.00207241 327.255 
779 1 0.012119 0.0108494 0.00100017 319.579 
292 1 0.0139551 0.0100566 0.000999991 325.755 
11 1 0.015904 0.0105056 0.00099999 324.163 
50 1 0.0188973 0.00950435 0.00176508 323.493 
1042 1 0.0207436 0.00942881 0.000999998 306.597 
694 1 0.0226224 0.0101149 0.000999989 338.035 
147 1 0.0240051 0.00907428 0.00200252 373.665 
983 1 0.0256274 0.00967679 0.000999989 335.22 
798 1 0.0278229 0.0101635 0.000999996 314.105 
966 1 0.0311269 0.00968438 0.000999995 318.454 
1186 1 0.033815 0.0102344 0.000999995 324.28 
1091 1 0.035782 0.00950263 0.000999993 338.042 
93 1 0.0382867 0.00960858 0.000999998 330.271 
1160 1 0.0399631 0.0106994 0.000999988 314.652 
575 1 0.0411762 0.00910919 0.00099999 331.573 
985 1 0.04312 0.00957997 0.000999996 315.128 
359 1 0.0453271 0.00941899 0.000999995 321.068 
969 1 0.0472618 0.00992566 0.000999998 308.394 
78 1 0.0492059 0.0103951 0.000999992 308.477 
363 1 0.000999994 0.0125472 0.000999995 300.624 
811 1 0.00296408 0.0122886 0.00127469 302.24 
743 1 0.00449491 0.0110312 0.000999993 303.735 
1251 1 0.00600936 0.0123375 0.000999995 303.237 
72 1 0.009055 0.0112752 0.000999994 309.913 
1313 1 0.0110293 0.0125265 0.00099999 309.118 
654 1 0.0139151 0.0120596 0.000999989 317.686 
271 1 0.0178307 0.0110467 0.000999998 300 
15 1 0.0191506 0.0123316 0.00178965 317.214 
215 1 0.0208644 0.0116686 0.00099999 318.971 
420 1 0.0226323 0.0118976 0.00190669 325.618 
449 1 0.0244554 0.012149 0.000999998 308.72 
39 1 0.0263672 0.0115349 0.000999992 316.365 
188 1 0.0295985 0.0111181 0.000999991 323.999 
425 1 0.028129 0.0124814 0.000999992 307.7 
1095 1 0.0312193 0.01229 0.000999998 300 
1227 1 0.033219 0.0122468 0.000999995 312.352 
119 1 0.0353449 0.0122917 0.000999998 300 
650 1 0.0369685 0.0111127 0.000999989 323.984 
1138 1 0.0386186 0.0122428 0.000999992 315.752 
979 1 0.0405124 0.0124274 0.00184388 322.724 
316 1 0.0424181 0.0117033 0.000999998 304.373 
1297 1 0.0443447 0.0111611 0.00099999 317.78 
1206 1 0.046545 0.0118446 0.000999993 312.179 
380 1 0.0484365 0.0121497 0.00157368 305.107 
347 1 0.00209295 0.014 0.00183359 300.606 
309 1 0.00396196 0.014 0.000999998 300.885 
1130 1 0.00566062 0.014 0.00205571 302.48 
807 1 0.00735927 0.014 0.000999991 301.923 
114 1 0.00931258 0.0135525 0.000999993 303.573 
240 1 0.0123816 0.014 0.000999997 304.32 
672 1 0.0144052 0.014 0.000999998 303.139 
729 1 0.0161846 0.014 0.00191321 311.588 
758 1 0.0179409 0.0137147 0.000999996 307.607 
1038 1 0.0199206 0.014 0.000999993 306.765 
81 1 0.0217812 0.0139926 0.00173331 312.605 
676 1 0.0236419 0.0139761 0.000999994 306.609 
534 1 0.026477 0.0137791 0.000999998 300 
526 1 0.0299137 0.014 0.000999997 302.345 
101 1 0.0322566 0.014 0.000999994 306.886 
1304 1 0.0342566 0.014 0.00099999 308.686 
1171 1 0.0370625 0.0139125 0.000999998 300 
442 1 0.0396097 0.014 0.000999989 311.19 
348 1 0.042318 0.0137131 0.000999998 300 
626 1 0.0443208 0.014 0.000999994 303.664 
935 1 0.0466488 0.0139495 0.000999998 300 
766 1 0.0489339 0.014 0.000999995 303.034 
728 1 0.00392052 -0.014 0.00238429 305.292 
1249 1 0.00256444 -0.0132265 0.00363435 312.679 
929 1 0.00450257 -0.0131416 0.00412055 322.095 
1137 1 0.00634469 -0.014 0.00274303 310.575 
1097 1 0.0078871 -0.0133954 0.0038635 330.072 
598 1 0.0095839 -0.014 0.0029944 319.32 
1056 1 0.0115791 -0.014 0.0031329 320.949 
747 1 0.0135702 -0.014 0.00294461 312.201 
1337 1 0.0162623 -0.0135725 0.00273454 307.277 
789 1 0.0184969 -0.014 0.00263796 322.061 
894 1 0.0203583 -0.014 0.00336963 323.326 
507 1 0.0220847 -0.0132262 0.00272104 321.27 
170 1 0.0250702 -0.014 0.00238244 314.285 
993 1 0.0240141 -0.0139722 0.00408059 338.132 
1048 1 0.0275175 -0.0134232 0.00263438 326.144 
1267 1 0.0262053 -0.014 0.00402915 310.972 
43 1 0.0295 -0.014 0.00274091 317.39 
1169 1 0.0312288 -0.014 0.00374657 335.786 
1008 1 0.0331407 -0.0134146 0.0037886 325.71 
1168 1 0.0342309 -0.014 0.00221734 314.929 
288 1 0.0350354 -0.014 0.00404837 325.204 
158 1 0.0375146 -0.014 0.00317125 307.004 
47 1 0.0406544 -0.0133617 0.00269294 331.573 
274 1 0.0425983 -0.014 0.00386091 325.995 
652 1 0.0441287 -0.014 0.00257328 314.982 
689 1 0.0463276 -0.014 0.00275222 310.248 
1184 1 0.0483371 -0.014 0.00274697 309.485 
1026 1 0.000999991 -0.0126891 0.00251021 305.464 
261 1 0.000999995 -0.011326 0.00397369 310.426 
1343 1 0.00301409 -0.0113076 0.00397475 325.669 
87 1 0.00423913 -0.0120312 0.0022356 306.333 
355 1 0.00504244 -0.0112267 0.00391614 336.643 
1208 1 0.00656471 -0.0120234 0.00253146 308.825 
22 1 0.00843274 -0.011079 0.00371936 348.618 
378 1 0.0101037 -0.0120919 0.00329275 330.785 
1220 1 0.0128444 -0.012285 0.00367402 326.504 
4 1 0.0145348 -0.0124065 0.00221646 314.905 
336 1 0.015519 -0.0118383 0.00386221 321.996 
622 1 0.0176585 -0.0122282 0.00224094 313.143 
1077 1 0.0174136 -0.0112732 0.00416425 349.153 
736 1 0.0189909 -0.012447 0.00379728 367.977 
681 1 0.0203697 -0.0122626 0.00236006 310.105 
859 1 0.022665 -0.0115618 0.00410205 361.379 
806 1 0.0239103 -0.0124121 0.00278814 339.792 
1152 1 0.0260548 -0.0120702 0.00246214 338.022 
999 1 0.0279366 -0.0119296 0.00389669 344.411 
1316 1 0.0289735 -0.011821 0.0021899 335.331 
797 1 0.029953 -0.0124734 0.00395094 341.125 
1264 1 0.0315301 -0.0122716 0.00273395 312.787 
20 1 0.0336445 -0.0118753 0.00261523 350.627 
1336 1 0.0350723 -0.0118548 0.00401562 341.571 
1126 1 0.0354465 -0.0110244 0.00213404 339.042 
233 1 0.0359508 -0.0129117 0.00256269 314.411 
450 1 0.0369507 -0.0113847 0.00340195 349.524 
160 1 0.0392319 -0.0123737 0.00369314 364.761 
724 1 0.0409925 -0.0114286 0.00230715 346.759 
876 1 0.0419024 -0.0120667 0.00396995 362.547 
872 1 0.0425493 -0.0128203 0.00223337 312.063 
704 1 0.0449215 -0.0120423 0.00276611 321.284 
945 1 0.0469145 -0.0120959 0.00292509 330.578 
221 1 0.0489219 -0.0120878 0.00278378 332.19 
1245 1 0.000999993 -0.00928449 0.00395345 316.327 
744 1 0.00199872 -0.0103191 0.00256345 315.195 
635 1 0.00390569 -0.00984746 0.00293895 329.762 
136 1 0.00590224 -0.00974057 0.00289044 338.156 
418 1 0.00782929 -0.00974667 0.00235529 339.815 
1057 1 0.0112144 -0.00913699 0.00230648 339.949 
259 1 0.0102857 -0.010154 0.00396539 381.465 
1318 1 0.0125372 -0.0106075 0.00262928 355.478 
725 1 0.0121185 -0.00937428 0.00414712 412.967 
1205 1 0.0144017 -0.00990101 0.00247217 365.92 
422 1 0.0163222 -0.0103914 0.00273907 340.74 
924 1 0.0183927 -0.0103733 0.00267041 355.092 
395 1 0.0200087 -0.0107212 0.00379621 360.554 
1195 1 0.0205045 -0.00947314 0.00231414 338.556 
500 1 0.0225748 -0.0102262 0.0026161 350.119 
213 1 0.0246572 -0.0105577 0.00272838 341.308 
909 1 0.0263344 -0.0095128 0.00242 369.107 
740 1 0.0265318 -0.0105259 0.00413308 387.36 
521 1 0.0284821 -0.00929895 0.00254496 386.33 
997 1 0.0297075 -0.0105331 0.00353251 376.777 
445 1 0.0304806 -0.00911342 0.00235493 370.25 
1261 1 0.0322714 -0.0104207 0.00289093 321.507 
529 1 0.0340991 -0.00964259 0.00265859 362.379 
277 1 0.0355513 -0.00991304 0.00402491 391.551 
124 1 0.0367214 -0.00947922 0.002462 381.522 
960 1 0.0385169 -0.0102744 0.00284128 368.583 
510 1 0.0401572 -0.0106169 0.00393302 410.106 
533 1 0.0434256 -0.0107171 0.00268929 354.323 
552 1 0.044975 -0.00945352 0.0026339 391.961 
697 1 0.0458235 -0.0106606 0.00398403 404.25 
440 1 0.0475928 -0.00981798 0.00358448 376.594 
1021 1 0.0490805 -0.0100354 0.00226562 354.953 
95 1 0.0495155 -0.0105984 0.00413479 386.495 
564 1 0.00099999 -0.00828587 0.00219099 313.738 
1178 1 0.00294431 -0.00812116 0.0026297 320.139 
1005 1 0.00493772 -0.00799531 0.00273643 353.022 
284 1 0.00642498 -0.00807971 0.00407095 376.748 
27 1 0.00807073 -0.00718883 0.00266529 378.531 
344 1 0.00938651 -0.00866083 0.00298457 369.863 
455 1 0.0105623 -0.00708018 0.00263943 385.277 
636 1 0.0124312 -0.00770239 0.00298568 381.061 
1006 1 0.0139625 -0.00858986 0.00391714 415.411 
457 1 0.0154895 -0.00790228 0.00238508 320.567 
719 1 0.0174886 -0.00898444 0.00379015 400.932 
970 1 0.0173748 -0.00710733 0.00303941 378.978 
179 1 0.019032 -0.00819104 0.00275844 386.968 
138 1 0.0218439 -0.00861733 0.00355266 402.112 
818 1 0.0203462 -0.00738063 0.00402971 445.648 
246 1 0.0236322 -0.00852863 0.00260825 351.908 
52 1 0.0251761 -0.00874884 0.00386041 401.079 
788 1 0.0270982 -0.00816529 0.00368523 406.73 
988 1 0.028116 -0.00722336 0.00224411 392.103 
490 1 0.0294674 -0.00792801 0.00361716 425.812 
84 1 0.031579 -0.00882185 0.0040007 446.553 
574 1 0.0326897 -0.00787248 0.00263506 376.416 
1270 1 0.0346324 -0.00763772 0.00222151 368.887 
890 1 0.0361877 -0.00783246 0.00346367 434.936 
51 1 0.0380266 -0.00798128 0.00269142 417.449 
631 1 0.0399048 -0.00892272 0.00234495 342.325 
96 1 0.0393912 -0.00787195 0.00414942 492.844 
511 1 0.0410111 -0.00732224 0.00280826 365.459 
466 1 0.041122 -0.00887299 0.00410041 491.58 
1303 1 0.0421003 -0.00893786 0.00235721 390.538 
958 1 0.0436162 -0.00824038 0.00345969 437.044 
801 1 0.0466159 -0.00823817 0.00279014 397.94 
12 1 0.0485517 -0.00783185 0.00249456 369.336 
1322 1 0.00166231 -0.00652449 0.00286836 333.162 
1341 1 0.00396419 -0.00627271 0.00244508 344.433 
558 1 0.00510905 -0.00651309 0.00406821 394.849 
1255 1 0.00617585 -0.0056989 0.0025853 362.138 
56 1 0.00920399 -0.00554256 0.00273928 400.4 
1328 1 0.0124008 -0.00589791 0.00386145 464.512 
981 1 0.0141383 -0.00669754 0.00326137 392.51 
63 1 0.016488 -0.00538171 0.00255375 400.103 
942 1 0.0197866 -0.00626282 0.00246853 415.751 
1115 1 0.0187325 -0.00616465 0.0041654 480.853 
394 1 0.0204476 -0.00512481 0.00397452 421.128 
433 1 0.0221624 -0.00664013 0.00363846 460.539 
1004 1 0.0238057 -0.00623755 0.0025719 400.412 
957 1 0.0256907 -0.00562412 0.0028533 368.223 
436 1 0.0276169 -0.00518118 0.0025475 412.645 
769 1 0.0283152 -0.00634638 0.0040305 475.829 
141 1 0.0300155 -0.00540323 0.00326521 436.409 
59 1 0.0319484 -0.00601689 0.00271977 392.701 
104 1 0.0339034 -0.00541545 0.00219479 364.76 
489 1 0.0353605 -0.00612222 0.00408883 451.139 
1166 1 0.0366481 -0.00613693 0.00250276 331.979 
58 1 0.0378524 -0.00653306 0.00405974 464.915 
593 1 0.0392466 -0.00639765 0.00263055 390.985 
897 1 0.041185 -0.00533196 0.00253628 403.434 
1 1 0.0428685 -0.00661072 0.0025736 385.666 
759 1 0.0446992 -0.00576291 0.00298167 399.002 
396 1 0.0462771 -0.0066257 0.00392378 445.653 
1234 1 0.0482705 -0.00512445 0.00266 371.881 
3839 1 0.0498275 -0.00635211 0.00292208 402.216 
539 1 0.000999991 -0.00463755 0.00284091 322.24 
502 1 0.0028692 -0.00496099 0.00348449 342.582 
1090 1 0.00241806 -0.00326162 0.00253127 333.416 
666 1 0.00465322 -0.00440221 0.00271947 351.452 
102 1 0.00755571 -0.00396157 0.00273142 394.277 
263 1 0.0095279 -0.00357948 0.00294262 429.235 
659 1 0.0111076 -0.00492458 0.00267413 370.741 
61 1 0.0132155 -0.00474062 0.00244835 396.031 
701 1 0.014857 -0.00485586 0.003585 444.368 
968 1 0.0144952 -0.00320426 0.00249262 397.396 
949 1 0.0164875 -0.00336364 0.00242094 384.887 
815 1 0.0184075 -0.00482756 0.00266398 406.402 
941 1 0.0219151 -0.00493099 0.00262965 398.712 
793 1 0.0203805 -0.00364863 0.00260586 406.91 
371 1 0.0217992 -0.00348212 0.00400576 508.915 
437 1 0.0237219 -0.00436751 0.00327611 395.399 
232 1 0.0256883 -0.00374046 0.00360621 431.639 
1053 1 0.0274331 -0.0032043 0.00278871 389.17 
1113 1 0.0294168 -0.00367225 0.0024619 424.34 
239 1 0.0285386 -0.00436099 0.00412155 507.76 
125 1 0.0313661 -0.00411936 0.00247416 389.041 
503 1 0.0305202 -0.00320882 0.00406428 492.578 
685 1 0.0338027 -0.00315327 0.00216831 356.199 
1183 1 0.0329001 -0.00455259 0.00369441 387.418 
607 1 0.0355435 -0.00451931 0.00290681 412.242 
670 1 0.0344352 -0.0033252 0.00406679 493.461 
337 1 0.0372277 -0.00348272 0.00320522 421.255 
1129 1 0.0385362 -0.00458563 0.00217014 376.171 
731 1 0.0397943 -0.0039422 0.00358553 471.593 
571 1 0.0429846 -0.00447594 0.00270542 366.025 
971 1 0.0428698 -0.00304037 0.00409671 476.406 
708 1 0.0447234 -0.00389631 0.00371446 401.509 
886 1 0.0466457 -0.00466918 0.00373368 372.155 
1181 1 0.0478672 -0.0031672 0.00257964 369.438 
7 1 0.000999995 -0.00224926 0.00351349 335.467 
194 1 0.00444504 -0.00241389 0.00266259 374.431 
824 1 0.00663811 -0.002199 0.00250483 383.306 
850 1 0.00789364 -0.0024833 0.00403545 403.151 
520 1 0.00878403 -0.00181657 0.00236061 392.056 
1122 1 0.011365 -0.00295271 0.00246086 404.713 
1071 1 0.0110248 -0.00157098 0.0038662 460.059 
1326 1 0.0128951 -0.00189142 0.00319063 420.223 
592 1 0.0149515 -0.00128289 0.00280888 413.278 
251 1 0.0169801 -0.001426 0.00247444 379.057 
702 1 0.0161354 -0.00228746 0.00406953 376.938 
1149 1 0.0180125 -0.00280077 0.00358607 451.638 
379 1 0.0189674 -0.00158635 0.00231587 382.826 
1284 1 0.0210353 -0.00176092 0.00269408 431.484 
794 1 0.0227832 -0.00284188 0.00238658 417.797 
448 1 0.0225297 -0.0013417 0.0039554 486.365 
1114 1 0.0242126 -0.00239472 0.00371208 490.048 
1335 1 0.0270199 -0.00120829 0.00282432 468.823 
687 1 0.0291767 -0.00168212 0.00229324 417.81 
753 1 0.0287052 -0.00236798 0.00411184 514.97 
628 1 0.0312942 -0.00143576 0.00223057 355.716 
937 1 0.0323336 -0.00265285 0.00342984 432.63 
637 1 0.0355118 -0.00215918 0.00284971 410.812 
998 1 0.0373732 -0.001489 0.00314284 397.536 
128 1 0.0393168 -0.00208354 0.00264561 370.292 
871 1 0.0411969 -0.00260098 0.00308983 348.399 
992 1 0.0426257 -0.00120919 0.00294356 367.348 
587 1 0.0438385 -0.00269671 0.00238109 387.558 
710 1 0.0445866 -0.00189194 0.0040522 466.738 
512 1 0.0461727 -0.00207084 0.00270327 329.133 
21 1 0.0478069 -0.00170423 0.00394202 444.873 
1170 1 0.0495766 -0.00258666 0.00344025 400.286 
822 1 0.000999987 -0.000473589 0.00259319 325.517 
109 1 0.0024542 -0.000832872 0.00391839 370.771 
528 1 0.00578114 -0.000842966 0.00394346 441.814 
242 1 0.00411277 -0.000225061 0.00285187 352.646 
144 1 0.00763281 -0.000245222 0.00300108 390.614 
1192 1 0.00914761 -0.000927255 0.00411472 442.995 
419 1 0.00945075 0.000512878 0.0026542 392.578 
412 1 0.0112445 -0.000305026 0.0023172 336.901 
1076 1 0.0126516 8.42541e-06 0.00379379 451.781 
62 1 0.0149188 0.000712616 0.0026792 417.607 
296 1 0.0169126 0.000567618 0.00261911 413.129 
1125 1 0.0179476 -0.000535511 0.00398153 441.54 
229 1 0.0189022 0.000404401 0.0024965 409.609 
1121 1 0.0207436 0.000143193 0.00323189 435.314 
1269 1 0.0233602 0.000450973 0.00361969 489.674 
182 1 0.0248598 -0.000777839 0.00272881 374.838 
438 1 0.0259157 0.000919027 0.00280466 457.36 
1194 1 0.0286065 0.000232978 0.00237905 415.18 
896 1 0.0318096 -0.000830484 0.00406577 479.061 
1030 1 0.0305119 0.000242498 0.00298658 420.167 
334 1 0.033172 -0.000725086 0.00260031 323.209 
19 1 0.0356439 -0.00022773 0.00234772 410.216 
65 1 0.0377027 0.000305464 0.00232351 386.7 
1120 1 0.0390534 -0.000489579 0.00382456 449.31 
1079 1 0.0395763 0.00096548 0.00255594 384.202 
1268 1 0.0407291 -0.00066785 0.0026123 379.002 
267 1 0.0425149 0.000767667 0.00266122 368.582 
307 1 0.0436758 2.84904e-05 0.00411238 471.864 
640 1 0.0445885 -0.000664407 0.00247324 397.343 
1235 1 0.0459945 0.000434349 0.00337651 377.122 
559 1 0.0474154 -0.000541394 0.0023621 328.978 
70 1 0.0493083 -0.000516063 0.00336394 392.617 
777 1 0.000999995 0.00110825 0.00381703 324.181 
471 1 0.000999996 0.00219067 0.00213525 317.383 
1043 1 0.00259936 0.0010612 0.00261711 343.599 
1165 1 0.0043985 0.00192522 0.00248846 363.818 
1342 1 0.00615918 0.00122393 0.00312734 383.483 
948 1 0.00824989 0.00209418 0.00238418 353.868 
73 1 0.00954494 0.00198347 0.0040064 423.798 
505 1 0.0109079 0.00187772 0.00253671 346.396 
921 1 0.0128894 0.00162969 0.00264707 350.809 
698 1 0.0148031 0.00263621 0.00214408 390.169 
542 1 0.0161275 0.00214771 0.00356089 397.594 
202 1 0.0179548 0.00149021 0.00405531 474.326 
1312 1 0.0198177 0.00190183 0.00345535 458.118 
1100 1 0.0218928 0.00199069 0.0026682 431.669 
902 1 0.024654 0.0020511 0.00386609 476.268 
715 1 0.0275718 0.00203697 0.00271739 449.834 
209 1 0.0292263 0.00157551 0.00374179 476.265 
68 1 0.030945 0.00242399 0.00317064 414.009 
189 1 0.0323332 0.0010903 0.00262827 365.602 
122 1 0.0331342 0.00221269 0.00408336 417.425 
1112 1 0.0343195 0.0011875 0.00284081 379.76 
1259 1 0.0371473 0.00244187 0.00221728 406.241 
570 1 0.0366618 0.0011466 0.00380976 464.288 
1070 1 0.0392343 0.0028996 0.00293307 356.783 