ITEM: TIMESTEP
23400000
ITEM: NUMBER OF ATOMS
5000
ITEM: BOX BOUNDS mm mm mm
0 0.1
-0.015 0.015
0 0.3
ITEM: ATOMS id type x y z f_Temp[0] 
977 1 0.00102825 -0.014 0.000999993 302.16 
581 1 0.00280541 -0.013082 0.000999998 300 
980 1 0.00536401 -0.0139934 0.000999992 304.91 
1252 1 0.00736683 -0.0139977 0.000999998 300 
648 1 0.00943464 -0.014 0.000999991 308.099 
1049 1 0.0114353 -0.0139954 0.000999998 300 
585 1 0.0133901 -0.0135649 0.000999998 300 
453 1 0.0153493 -0.0139698 0.000999997 302.881 
812 1 0.0173493 -0.0139999 0.000999993 309.79 
1111 1 0.0195007 -0.0134438 0.000999984 310.222 
713 1 0.021422 -0.014 0.000999994 307.766 
1065 1 0.0234048 -0.014 0.00126756 304.766 
82 1 0.0265155 -0.0139931 0.000999994 313.57 
383 1 0.0285156 -0.014 0.000999992 310.767 
930 1 0.030521 -0.014 0.000999997 307.784 
936 1 0.0322405 -0.014 0.00202133 314.276 
1185 1 0.0365621 -0.014 0.000999997 305.538 
961 1 0.0387276 -0.014 0.00158109 316.485 
397 1 0.0415067 -0.014 0.000999998 311.926 
434 1 0.0453634 -0.0139995 0.000999989 309.599 
845 1 0.0473634 -0.013996 0.000999993 305.661 
69 1 0.0493634 -0.014 0.000999998 300 
775 1 0.00100002 -0.0113754 0.000999998 300 
100 1 0.0029795 -0.0110896 0.000999992 306.996 
914 1 0.00557519 -0.0112015 0.00100005 311.852 
80 1 0.00757517 -0.0111953 0.000999991 315.446 
451 1 0.00998402 -0.0120769 0.000999996 317.94 
796 1 0.00840292 -0.0126653 0.00207425 309.997 
693 1 0.0116631 -0.012314 0.00206038 328.782 
1317 1 0.0131863 -0.0115688 0.000999987 322.93 
915 1 0.0160944 -0.0121103 0.000999994 314.519 
410 1 0.0190455 -0.011496 0.000999996 313.816 
830 1 0.0224371 -0.0122702 0.000999998 301.257 
320 1 0.0247898 -0.0125822 0.000999992 315.364 
112 1 0.0274126 -0.0122056 0.000999996 320.667 
75 1 0.0305709 -0.0120006 0.000999993 318.911 
44 1 0.0325472 -0.012308 0.000999993 313.115 
903 1 0.0346614 -0.0124727 0.000999987 324.886 
501 1 0.0399655 -0.0125406 0.000999994 322.757 
606 1 0.0381813 -0.0121244 0.00200969 341.091 
895 1 0.0424953 -0.0112468 0.000999991 330.055 
98 1 0.0440827 -0.0124633 0.000999998 316.671 
591 1 0.0463645 -0.0121882 0.000999998 300 
260 1 0.0483399 -0.0113954 0.000999988 327.892 
341 1 0.00236835 -0.00912792 0.000999989 308.699 
781 1 0.00434315 -0.00962605 0.00099999 314.518 
163 1 0.00630249 -0.00922482 0.000999992 319.111 
180 1 0.00969329 -0.0104144 0.00207298 350.755 
657 1 0.0113778 -0.0106424 0.000999994 318.78 
479 1 0.0130888 -0.00957115 0.00099999 327.668 
1334 1 0.0156328 -0.00933789 0.000999989 335.782 
236 1 0.0173021 -0.0105161 0.00100003 332.048 
463 1 0.0189969 -0.0094543 0.000999987 335.794 
1058 1 0.020961 -0.0109208 0.000999997 311.772 
214 1 0.021988 -0.00920459 0.000999991 335.924 
48 1 0.0236592 -0.010687 0.000999996 326.853 
1001 1 0.0256579 -0.0107646 0.000999989 322.895 
157 1 0.0275721 -0.0101849 0.00099999 342.458 
154 1 0.0295703 -0.010269 0.000999998 339.86 
849 1 0.0316897 -0.0101274 0.000999998 307.927 
986 1 0.0337356 -0.0106994 0.000999992 331.244 
352 1 0.0353603 -0.00937906 0.000999998 342.397 
391 1 0.037078 -0.0107965 0.00099999 338.314 
828 1 0.0380495 -0.00904828 0.000999991 351.345 
1302 1 0.0391669 -0.010707 0.000999988 335.309 
1153 1 0.0410033 -0.00991491 0.000999992 342.723 
1029 1 0.0435086 -0.00935559 0.000999995 337.182 
734 1 0.0450013 -0.0106867 0.000999997 322.222 
168 1 0.0467898 -0.0104128 0.001852 343.732 
673 1 0.0479253 -0.00900397 0.000999991 341.416 
230 1 0.00208414 -0.00710001 0.000999993 317.329 
962 1 0.00400567 -0.00765473 0.000999989 324.608 
829 1 0.00807393 -0.0082964 0.000999989 333.27 
409 1 0.0100683 -0.00814704 0.00100015 331.591 
524 1 0.0120481 -0.00786324 0.000999994 325.8 
1221 1 0.0140493 -0.00781582 0.000999998 306.62 
1092 1 0.0173393 -0.0086903 0.00181755 362.038 
461 1 0.016624 -0.00701102 0.000999992 334.753 
1062 1 0.0197951 -0.00762048 0.000999986 356.092 
790 1 0.0215614 -0.00748521 0.00192831 383.734 
200 1 0.0233297 -0.00737885 0.000999993 355.36 
602 1 0.0247258 -0.00899514 0.000999997 323.56 
546 1 0.0254076 -0.0074302 0.00204216 334.152 
1240 1 0.0269157 -0.00822994 0.000999998 313.639 
247 1 0.0292594 -0.00829331 0.00099999 355.756 
973 1 0.0315646 -0.00811889 0.00099999 343.741 
1319 1 0.0334732 -0.00871669 0.000999992 344.718 
947 1 0.0365133 -0.00779137 0.00138712 328.077 
238 1 0.0398083 -0.00744564 0.000999998 335.842 
162 1 0.0418495 -0.00748738 0.000999997 325.234 
367 1 0.0444121 -0.00769988 0.0016651 342.882 
1274 1 0.0459344 -0.00881346 0.000999986 353.833 
1074 1 0.0498525 -0.00837872 0.000999998 300 
28 1 0.0010002 -0.00541922 0.000999994 310.132 
956 1 0.00299521 -0.00525898 0.000999998 300 
134 1 0.00500411 -0.00536152 0.000999994 333.674 
825 1 0.00684751 -0.00671657 0.000999995 330.966 
976 1 0.00894151 -0.00649438 0.000999994 343.307 
169 1 0.0109715 -0.00601028 0.000999993 345.069 
556 1 0.0129962 -0.00610228 0.000999995 345.264 
421 1 0.0149261 -0.00609382 0.001525 352.387 
1217 1 0.0184323 -0.00615665 0.000999998 340.009 
1325 1 0.0210615 -0.00573867 0.000999998 300 
496 1 0.0230199 -0.00528279 0.000999996 362.142 
639 1 0.024956 -0.005784 0.00099999 358.228 
1151 1 0.0269057 -0.0062297 0.000999984 357.721 
443 1 0.0289764 -0.00543346 0.000999998 300 
1231 1 0.0310305 -0.00545211 0.000999998 300 
146 1 0.0303193 -0.00698151 0.00207498 391.428 
1290 1 0.0330366 -0.00676492 0.000999997 336.153 
1075 1 0.0353259 -0.00621403 0.000999995 334.541 
618 1 0.038025 -0.00654034 0.000999998 313.32 
83 1 0.0399098 -0.00544822 0.000999985 361.131 
974 1 0.0424605 -0.00544572 0.000999991 357.219 
1289 1 0.0449382 -0.00588859 0.000999992 350.266 
772 1 0.0466402 -0.00609637 0.0020296 382.865 
530 1 0.0482999 -0.00652692 0.000999994 344.433 
283 1 0.0037104 -0.00338738 0.000999998 300 
750 1 0.00569449 -0.00311849 0.000999998 300.002 
234 1 0.00689912 -0.00471724 0.000999994 344.3 
1025 1 0.00808708 -0.0031082 0.000999998 300 
139 1 0.00957535 -0.00451691 0.000999998 300 
791 1 0.0119528 -0.0041857 0.000999985 360.169 
402 1 0.0153626 -0.004214 0.000999994 347.01 
1087 1 0.017357 -0.00447035 0.000999991 357.099 
519 1 0.0193899 -0.00431182 0.000999993 362.982 
275 1 0.0216938 -0.00378558 0.000999994 346.389 
142 1 0.0249492 -0.00393316 0.00175782 383.636 
90 1 0.0267754 -0.00423396 0.000999996 351.775 
492 1 0.032699 -0.00434362 0.000999993 344.583 
749 1 0.0350091 -0.00423928 0.000999994 349.5 
1187 1 0.0369358 -0.00484893 0.000999997 329.353 
175 1 0.0402006 -0.00358298 0.00166048 379.9 
1050 1 0.0420853 -0.00347573 0.000999995 337.335 
846 1 0.0439728 -0.00413701 0.000999988 350.694 
424 1 0.0456873 -0.00431841 0.00201368 366.266 
1243 1 0.0474114 -0.00430605 0.000999998 344.163 
3721 1 0.0493439 -0.00482097 0.000999988 338.849 
77 1 0.00106585 -0.00208467 0.000999998 300 
37 1 0.00269634 -0.00135299 0.00200246 341.711 
1108 1 0.00442621 -0.00130241 0.000999983 340.014 
385 1 0.0074663 -0.0011745 0.000999988 347.304 
89 1 0.0100507 -0.00255581 0.000999998 300 
318 1 0.0118586 -0.00167902 0.000999998 331.933 
32 1 0.0138228 -0.00205531 0.000999998 328.766 
964 1 0.0158217 -0.00212183 0.000999998 324.13 
1180 1 0.0177825 -0.00251614 0.000999993 343.213 
885 1 0.0201852 -0.00247261 0.000999997 350.979 
264 1 0.0220832 -0.00158202 0.000999986 373.362 
258 1 0.0241116 -0.00228266 0.001 387.598 
291 1 0.0258098 -0.00110755 0.000999998 336.747 
1052 1 0.0282802 -0.00291658 0.000999992 372.157 
486 1 0.0304223 -0.00274938 0.000999993 356.265 
401 1 0.0328101 -0.00186878 0.000999996 333.701 
91 1 0.0348112 -0.00186302 0.00099999 348.004 
1248 1 0.0364864 -0.00291987 0.00127711 339.119 
1196 1 0.0384654 -0.00283657 0.000999995 335.582 
351 1 0.0409167 -0.00183629 0.000999995 346.418 
1003 1 0.0429074 -0.00158961 0.000999997 335.553 
545 1 0.0452833 -0.00262575 0.000999997 343.873 
31 1 0.0472197 -0.00212533 0.000999991 335.569 
1027 1 0.0491105 -0.00283465 0.000999996 316.435 
620 1 0.00150677 0.000624044 0.000999984 319.967 
817 1 0.00370932 0.000569715 0.000999998 300 
127 1 0.00591125 -0.000406584 0.00199601 375.462 
306 1 0.00756563 0.000823028 0.000999994 328.163 
167 1 0.00960301 -0.000600847 0.000999992 351.717 
721 1 0.0132144 -0.000384327 0.00191523 401.521 
33 1 0.0157881 -0.000111016 0.000999998 300 
522 1 0.0178052 -0.000353345 0.000999998 300 
1330 1 0.0201724 -0.000472022 0.000999998 300 
624 1 0.0239822 -0.000286865 0.000999988 370.096 
799 1 0.0222849 0.000162791 0.00195755 410.39 
644 1 0.0278053 -0.000973797 0.000999988 375.863 
181 1 0.0267602 0.000745955 0.000999994 368.725 
289 1 0.0300684 -0.000444246 0.000999989 358.743 
899 1 0.0320249 -2.93762e-05 0.000999997 330.75 
184 1 0.0341146 1.6855e-05 0.000999998 307.712 
1191 1 0.0369447 -0.000988296 0.000999998 315.938 
625 1 0.0395962 -0.000290967 0.000999998 326.138 
250 1 0.0417007 7.81934e-06 0.000999996 344.39 
1247 1 0.0440458 0.000574512 0.000999991 345.248 
518 1 0.045939 -0.000588995 0.000999992 351.054 
198 1 0.0476838 0.000898681 0.000999998 300 
527 1 0.0488465 -0.000852146 0.000999995 324.136 
904 1 0.0494914 0.00083641 0.00185608 358.376 
305 1 0.00264916 0.00226565 0.00100002 326.58 
408 1 0.00557638 0.00129512 0.000999993 345.398 
1037 1 0.00643218 0.00282586 0.00196146 367.708 
1054 1 0.00968458 0.00225442 0.000999996 328.994 
310 1 0.0118963 0.00105146 0.000999998 311.87 
364 1 0.0129022 0.00293552 0.000999998 319.75 
392 1 0.0139525 0.00123354 0.000999991 353.82 
430 1 0.0169059 0.00174167 0.000999993 356.196 
723 1 0.0189957 0.00172791 0.000999992 349.383 
279 1 0.0209923 0.00135248 0.000999998 300 
1099 1 0.0248586 0.00295496 0.000999993 363.053 
1044 1 0.0241312 0.00141222 0.00204443 419.104 
1226 1 0.0268526 0.0027672 0.000999989 382.729 
474 1 0.0285332 0.00167963 0.000999992 360.539 
1175 1 0.0304799 0.00146998 0.0014079 376.072 
280 1 0.033244 0.0018183 0.000999998 317.996 
476 1 0.0350733 0.0024588 0.0014934 360.686 
735 1 0.0363974 0.00104339 0.000999985 368.896 
311 1 0.0384834 0.00158561 0.000999987 367.63 
562 1 0.0405308 0.00178272 0.000999989 355.159 
197 1 0.0425283 0.0018813 0.000999995 335.321 
615 1 0.0443907 0.00261031 0.000999986 350.502 
568 1 0.0458138 0.00132471 0.00156747 382.557 
1197 1 0.0497082 0.00263088 0.000999994 351.183 
366 1 0.00100063 0.00383724 0.000999997 306.522 
920 1 0.0043839 0.00326097 0.00099999 328.028 
1036 1 0.00644525 0.00457953 0.000999989 329.163 
314 1 0.00844557 0.00419959 0.000999998 300 
1224 1 0.0104826 0.00408961 0.000999992 339.201 
1124 1 0.0123036 0.0049164 0.000999992 346.948 
1286 1 0.0152051 0.00422662 0.000999983 357.732 
972 1 0.0186014 0.00369399 0.000999996 330.198 
493 1 0.0202753 0.0030119 0.00185588 401.266 
939 1 0.02075 0.00475605 0.000999988 368.818 
923 1 0.0220823 0.00307749 0.000999993 358.325 
241 1 0.0235323 0.00445514 0.00099999 371.579 
322 1 0.0254857 0.00479463 0.00147149 379.133 
485 1 0.0274261 0.00468323 0.000999995 357.214 
814 1 0.0294225 0.00456453 0.000999989 365.063 
1229 1 0.031651 0.00303909 0.000999991 359.831 
879 1 0.0329349 0.0047275 0.000999998 300 
1019 1 0.0354244 0.00436559 0.000999992 349.895 
26 1 0.0374497 0.00408389 0.000999998 300 
946 1 0.0393305 0.00340354 0.000999998 320.701 
1314 1 0.041438 0.0035651 0.000999997 340.153 
300 1 0.0429164 0.00497018 0.000999991 346.051 
757 1 0.0450353 0.00455745 0.000999996 334.105 
121 1 0.0464429 0.00313648 0.000999998 300 
2899 1 0.0491937 0.0045982 0.000999981 355.224 
235 1 0.0481355 0.00327053 0.00205706 390.256 
852 1 0.00147344 0.00578054 0.000999994 304.651 
143 1 0.00359123 0.00509717 0.000999997 321.288 
712 1 0.00611097 0.00655139 0.000999995 320.927 
857 1 0.00765647 0.00583318 0.0020467 341.064 
156 1 0.0101025 0.00606702 0.000999991 335.371 
733 1 0.0125017 0.00690655 0.000999988 344.531 
761 1 0.0142908 0.00601083 0.000999998 300 
1306 1 0.0170989 0.00501409 0.000999991 340.216 
1285 1 0.0165012 0.0069659 0.000999998 311.385 
237 1 0.0189814 0.0056897 0.000999997 336.822 
621 1 0.0222928 0.00602882 0.00099999 353.018 
1134 1 0.0242725 0.00631312 0.000999989 358.481 
1154 1 0.028986 0.0067722 0.000999991 360.621 
332 1 0.0310772 0.00569305 0.000999998 300 
404 1 0.0326452 0.00696578 0.000999994 343.769 
1299 1 0.0344553 0.0061151 0.000999994 342.856 
1088 1 0.0366774 0.00592881 0.000999988 372.493 
54 1 0.0390828 0.00538837 0.000999994 339.367 
176 1 0.0410339 0.00582837 0.000999992 338.299 
544 1 0.0455133 0.00651561 0.000999998 300 
469 1 0.0472716 0.00515104 0.000999995 330.878 
14 1 0.0486979 0.00655309 0.000999996 336.67 
741 1 0.000999996 0.00772368 0.00100003 304.456 
187 1 0.00278473 0.00862649 0.000999991 308.758 
540 1 0.00401709 0.00705129 0.000999987 315.641 
193 1 0.00477841 0.00895612 0.000999998 300 
253 1 0.0068207 0.00842122 0.000999996 316.144 
959 1 0.00850773 0.00730957 0.000999992 325.042 
328 1 0.0114071 0.00884897 0.000999998 300 
718 1 0.0132987 0.00844915 0.0019926 347.925 
978 1 0.0151909 0.00848408 0.000999991 337.625 
488 1 0.0171399 0.00893312 0.000999991 333.504 
847 1 0.0186891 0.00766823 0.000999992 340.341 
473 1 0.0206949 0.00740114 0.000999998 300 
854 1 0.0226507 0.00799697 0.000999991 359.929 
207 1 0.026375 0.00739614 0.000999998 300.097 
513 1 0.0293352 0.00896057 0.00151575 337.548 
651 1 0.0307733 0.00766986 0.000999989 343.938 
1298 1 0.0326488 0.00875108 0.00190147 341.404 
1244 1 0.0353883 0.00770327 0.00177925 379.922 
611 1 0.0372176 0.00791835 0.000999986 347.695 
730 1 0.0393608 0.00754533 0.000999997 334.132 
835 1 0.0417267 0.00744182 0.00195747 386.43 
110 1 0.0436805 0.00766014 0.000999996 333.078 
428 1 0.0469194 0.00795518 0.000999997 309.49 
174 1 0.0497579 0.00825521 0.000999987 347.575 
205 1 0.00100021 0.00991911 0.000999985 303.125 
177 1 0.00272024 0.0104073 0.001908 306.236 
674 1 0.00638342 0.0103728 0.000999989 311.942 
79 1 0.00942032 0.00908922 0.000999998 321.07 
1320 1 0.0104938 0.0103921 0.00207241 331.492 
779 1 0.012119 0.0108494 0.00100017 322.875 
292 1 0.0139551 0.0100566 0.000999991 328.727 
11 1 0.015904 0.0105056 0.00099999 326.544 
50 1 0.0188973 0.00950435 0.00176508 327.81 
1042 1 0.0207436 0.0094288 0.000999998 308.476 
694 1 0.0226224 0.0101149 0.000999989 341.034 
147 1 0.0240051 0.00907428 0.00200252 377.695 
983 1 0.0256274 0.00967679 0.000999989 339.141 
798 1 0.0278229 0.0101635 0.000999996 316.826 
966 1 0.0311269 0.00968438 0.000999995 322.832 
1186 1 0.033815 0.0102344 0.000999995 329.208 
1091 1 0.035782 0.00950263 0.000999993 343.383 
93 1 0.0382867 0.00960858 0.000999998 336.296 
1160 1 0.0399631 0.0106994 0.000999988 319.284 
575 1 0.0411762 0.00910919 0.00099999 338.313 
985 1 0.04312 0.00957997 0.000999996 319.854 
359 1 0.0453271 0.00941899 0.000999995 327.04 
969 1 0.0472618 0.00992566 0.000999998 312.564 
78 1 0.0492059 0.0103951 0.000999992 313.136 
363 1 0.000999994 0.0125472 0.000999995 300.882 
811 1 0.00296408 0.0122886 0.00127469 303.028 
743 1 0.00449491 0.0110312 0.000999993 304.741 
1251 1 0.00600936 0.0123375 0.000999995 304.087 
72 1 0.009055 0.0112752 0.000999994 311.999 
1313 1 0.0110293 0.0125265 0.00099999 310.879 
654 1 0.0139151 0.0120596 0.000999989 319.757 
271 1 0.0178308 0.0110465 0.000999998 300 
15 1 0.0191506 0.0123316 0.00178965 320.512 
215 1 0.0208644 0.0116686 0.00099999 321.528 
420 1 0.0226323 0.0118976 0.00190669 330.116 
449 1 0.0244554 0.012149 0.000999998 311.348 
39 1 0.0263672 0.0115349 0.000999992 318.97 
188 1 0.0295985 0.0111181 0.000999991 327.799 
425 1 0.028129 0.0124814 0.000999992 309.358 
1095 1 0.0312193 0.01229 0.000999998 300 
1227 1 0.033219 0.0122468 0.000999995 315.443 
119 1 0.035345 0.0122923 0.000999998 300 
650 1 0.0369685 0.0111127 0.000999989 328.805 
1138 1 0.0386186 0.0122428 0.000999992 320.055 
979 1 0.0405124 0.0124274 0.00184388 328.887 
316 1 0.042418 0.0117033 0.000999998 307.062 
1297 1 0.0443447 0.0111611 0.00099999 323.595 
1206 1 0.046545 0.0118446 0.000999993 317.601 
380 1 0.0484365 0.0121497 0.00157368 309.153 
347 1 0.00209295 0.014 0.00183359 300.876 
309 1 0.00396196 0.014 0.000999998 301.231 
1130 1 0.00566062 0.014 0.00205571 303.266 
807 1 0.00735927 0.014 0.000999991 302.523 
114 1 0.00931258 0.0135525 0.000999993 304.524 
240 1 0.0123816 0.014 0.000999997 305.109 
672 1 0.0144052 0.014 0.000999998 303.784 
729 1 0.0161846 0.014 0.00191321 313.153 
758 1 0.0179409 0.0137147 0.000999996 309.221 
1038 1 0.0199206 0.014 0.000999993 308.277 
81 1 0.0217812 0.0139926 0.00173331 315.041 
676 1 0.0236419 0.0139761 0.000999994 308.142 
534 1 0.0264758 0.0137829 0.000999998 300 
526 1 0.0299137 0.014 0.000999997 303.543 
101 1 0.0322566 0.014 0.000999994 308.684 
1304 1 0.0342566 0.014 0.00099999 310.413 
1171 1 0.0370536 0.0139169 0.000999998 300 
442 1 0.0396097 0.014 0.000999989 314.633 
348 1 0.0423161 0.013714 0.000999998 300 
626 1 0.0443208 0.014 0.000999994 305.919 
935 1 0.0466445 0.013952 0.000999998 300 
766 1 0.0489339 0.014 0.000999995 305.591 
728 1 0.00392052 -0.014 0.00238429 306.174 
1249 1 0.00256444 -0.0132265 0.00363435 314.21 
929 1 0.00450257 -0.0131416 0.00412055 324.847 
1137 1 0.00634469 -0.014 0.00274303 311.774 
1097 1 0.0078871 -0.0133954 0.0038635 331.868 
598 1 0.0095839 -0.014 0.0029944 320.661 
1056 1 0.0115791 -0.014 0.0031329 322.252 
747 1 0.0135702 -0.014 0.00294461 313.574 
1337 1 0.0162623 -0.0135725 0.00273454 308.799 
789 1 0.0184969 -0.014 0.00263796 323.231 
894 1 0.0203583 -0.014 0.00336963 325.079 
507 1 0.0220847 -0.0132262 0.00272104 323.921 
170 1 0.0250702 -0.014 0.00238244 316.321 
993 1 0.0240141 -0.0139722 0.00408059 341.202 
1048 1 0.0275175 -0.0134232 0.00263438 329.266 
1267 1 0.0262053 -0.014 0.00402915 313.157 
43 1 0.0295 -0.014 0.00274091 320.309 
1169 1 0.0312288 -0.014 0.00374657 339.602 
1008 1 0.0331407 -0.0134146 0.0037886 330.766 
1168 1 0.0342309 -0.014 0.00221734 318.006 
288 1 0.0350354 -0.014 0.00404837 329.499 
158 1 0.0375146 -0.014 0.00317125 310.247 
47 1 0.0406544 -0.0133617 0.00269294 338.576 
274 1 0.0425983 -0.014 0.00386091 331.723 
652 1 0.0441287 -0.014 0.00257328 319.242 
689 1 0.0463276 -0.014 0.00275222 315.157 
1184 1 0.0483371 -0.014 0.00274697 313.877 
1026 1 0.000999991 -0.0126891 0.00251021 306.171 
261 1 0.000999995 -0.011326 0.00397369 311.287 
1343 1 0.00301409 -0.0113076 0.00397475 327.609 
87 1 0.00423913 -0.0120312 0.0022356 307.684 
355 1 0.00504244 -0.0112267 0.00391614 339.883 
1208 1 0.00656471 -0.0120234 0.00253146 310.578 
22 1 0.00843274 -0.011079 0.00371936 352.522 
378 1 0.0101037 -0.0120919 0.00329275 334.439 
1220 1 0.0128444 -0.012285 0.00367402 330.14 
4 1 0.0145348 -0.0124065 0.00221646 317.061 
336 1 0.015519 -0.0118383 0.00386221 326.092 
622 1 0.0176585 -0.0122282 0.00224094 314.997 
1077 1 0.0174136 -0.0112732 0.00416425 354.248 
736 1 0.0189909 -0.012447 0.00379728 370.097 
681 1 0.0203697 -0.0122626 0.00236006 312.213 
859 1 0.022665 -0.0115618 0.00410205 365.404 
806 1 0.0239103 -0.0124121 0.00278814 343.604 
1152 1 0.0260548 -0.0120702 0.00246214 341.556 
999 1 0.0279366 -0.0119296 0.00389669 351.055 
1316 1 0.0289735 -0.011821 0.0021899 340.828 
797 1 0.029953 -0.0124734 0.00395094 347.582 
1264 1 0.0315301 -0.0122716 0.00273395 316.679 
20 1 0.0336445 -0.0118753 0.00261523 356.331 
1336 1 0.0350723 -0.0118548 0.00401562 350.346 
1126 1 0.0354465 -0.0110244 0.00213404 345.518 
233 1 0.0359508 -0.0129117 0.00256269 319.571 
450 1 0.0369507 -0.0113847 0.00340195 357.806 
160 1 0.0392319 -0.0123737 0.00369314 371.567 
724 1 0.0409925 -0.0114286 0.00230715 353.762 
876 1 0.0419024 -0.0120667 0.00396995 373.241 
872 1 0.0425493 -0.0128203 0.00223337 317.19 
704 1 0.0449215 -0.0120423 0.00276611 331.466 
945 1 0.0469145 -0.0120959 0.00292509 340.59 
221 1 0.0489219 -0.0120878 0.00278378 340.924 
1245 1 0.000999993 -0.00928449 0.00395345 317.191 
744 1 0.00199872 -0.0103191 0.00256345 316.488 
635 1 0.00390569 -0.00984746 0.00293895 331.833 
136 1 0.00590224 -0.00974057 0.00289044 341.226 
418 1 0.00782929 -0.00974667 0.00235529 343.188 
1057 1 0.0112144 -0.00913699 0.00230648 344.411 
259 1 0.0102857 -0.010154 0.00396539 386.205 
1318 1 0.0125372 -0.0106075 0.00262928 357.858 
725 1 0.0121185 -0.00937428 0.00414712 414.401 
1205 1 0.0144017 -0.00990101 0.00247217 368.126 
422 1 0.0163222 -0.0103914 0.00273907 344.669 
924 1 0.0183927 -0.0103733 0.00267041 359.888 
395 1 0.0200087 -0.0107212 0.00379621 366.158 
1195 1 0.0205045 -0.00947314 0.00231414 343.539 
500 1 0.0225748 -0.0102262 0.0026161 354.45 
213 1 0.0246572 -0.0105577 0.00272838 346.998 
909 1 0.0263344 -0.0095128 0.00242 375.135 
740 1 0.0265318 -0.0105259 0.00413308 393.504 
521 1 0.0284821 -0.00929895 0.00254496 393.944 
997 1 0.0297075 -0.0105331 0.00353251 383.771 
445 1 0.0304806 -0.00911342 0.00235493 375.9 
1261 1 0.0322714 -0.0104207 0.00289093 326.378 
529 1 0.0340991 -0.00964259 0.00265859 368.053 
277 1 0.0355513 -0.00991304 0.00402491 401.361 
124 1 0.0367214 -0.00947922 0.002462 389.775 
960 1 0.0385169 -0.0102744 0.00284128 375.67 
510 1 0.0401572 -0.0106169 0.00393302 414.777 
533 1 0.0434256 -0.0107171 0.00268929 366.437 
552 1 0.044975 -0.00945352 0.0026339 403.054 
697 1 0.0458235 -0.0106606 0.00398403 415.125 
440 1 0.0475928 -0.00981798 0.00358448 391.224 
1021 1 0.0490805 -0.0100354 0.00226562 368.321 
95 1 0.0495155 -0.0105984 0.00413479 403.771 
564 1 0.00099999 -0.00828587 0.00219099 314.582 
1178 1 0.00294431 -0.00812116 0.0026297 322.202 
1005 1 0.00493772 -0.00799531 0.00273643 354.853 
284 1 0.00642498 -0.00807971 0.00407095 379.97 
27 1 0.00807073 -0.00718883 0.00266529 380.809 
344 1 0.00938651 -0.00866083 0.00298457 374.211 
455 1 0.0105623 -0.00708018 0.00263943 388.733 
636 1 0.0124312 -0.00770239 0.00298568 385.899 
1006 1 0.0139625 -0.00858986 0.00391714 418.179 
457 1 0.0154895 -0.00790228 0.00238508 323.621 
719 1 0.0174886 -0.00898444 0.00379015 404.763 
970 1 0.0173748 -0.00710733 0.00303941 385.59 
179 1 0.019032 -0.00819104 0.00275844 391.348 
138 1 0.0218439 -0.00861733 0.00355266 405.856 
818 1 0.0203462 -0.00738063 0.00402971 447.396 
246 1 0.0236322 -0.00852863 0.00260825 356.832 
52 1 0.0251761 -0.00874884 0.00386041 405.702 
788 1 0.0270982 -0.00816529 0.00368523 413.296 
988 1 0.028116 -0.00722336 0.00224411 397.483 
490 1 0.0294674 -0.00792801 0.00361716 435.627 
84 1 0.031579 -0.00882185 0.0040007 451.323 
574 1 0.0326897 -0.00787248 0.00263506 386.535 
1270 1 0.0346324 -0.00763772 0.00222151 377.598 
890 1 0.0361877 -0.00783246 0.00346367 443.457 
51 1 0.0380266 -0.00798128 0.00269142 426.65 
631 1 0.0399048 -0.00892272 0.00234495 350.751 
96 1 0.0393912 -0.00787195 0.00414942 498.099 
511 1 0.0410111 -0.00732224 0.00280826 378.066 
466 1 0.041122 -0.00887299 0.00410041 494.557 
1303 1 0.0421003 -0.00893786 0.00235721 398.612 
958 1 0.0436162 -0.00824038 0.00345969 445.024 
801 1 0.0466159 -0.00823817 0.00279014 411.655 
12 1 0.0485517 -0.00783185 0.00249456 384.828 
1322 1 0.00166231 -0.00652449 0.00286836 333.958 
1341 1 0.00396419 -0.00627271 0.00244508 346.478 
558 1 0.00510905 -0.00651309 0.00406821 393.852 
1255 1 0.00617585 -0.0056989 0.0025853 363.64 
56 1 0.00920399 -0.00554256 0.00273928 401.989 
1328 1 0.0124008 -0.00589791 0.00386145 464.573 
981 1 0.0141383 -0.00669754 0.00326137 396.897 
63 1 0.016488 -0.00538171 0.00255375 405.999 
942 1 0.0197866 -0.00626282 0.00246853 420.57 
1115 1 0.0187325 -0.00616465 0.0041654 484.083 
394 1 0.0204476 -0.00512481 0.00397452 429.7 
433 1 0.0221624 -0.00664013 0.00363846 460.671 
1004 1 0.0238057 -0.00623755 0.0025719 403.58 
957 1 0.0256907 -0.00562412 0.0028533 375.981 
436 1 0.0276169 -0.00518118 0.0025475 418.436 
769 1 0.0283152 -0.00634638 0.0040305 479.677 
141 1 0.0300155 -0.00540323 0.00326521 446.752 
59 1 0.0319484 -0.00601689 0.00271977 405.646 
104 1 0.0339034 -0.00541545 0.00219479 378.715 
489 1 0.0353605 -0.00612222 0.00408883 462.749 
1166 1 0.0366481 -0.00613693 0.00250276 341.856 
58 1 0.0378524 -0.00653306 0.00405974 476.764 
593 1 0.0392466 -0.00639765 0.00263055 402.721 
897 1 0.041185 -0.00533196 0.00253628 412.62 
1 1 0.0428685 -0.00661072 0.0025736 397.957 
759 1 0.0446992 -0.00576291 0.00298167 411.824 
396 1 0.0462771 -0.0066257 0.00392378 455.69 
1234 1 0.0482705 -0.00512445 0.00266 390.305 
3839 1 0.0498275 -0.00635211 0.00292208 420.844 
539 1 0.000999991 -0.00463755 0.00284091 322.94 
502 1 0.0028692 -0.00496099 0.00348449 345.807 
1090 1 0.00241806 -0.00326162 0.00253127 335.53 
666 1 0.00465322 -0.00440221 0.00271947 355.597 
102 1 0.00755571 -0.00396157 0.00273142 397.969 
263 1 0.00952789 -0.00357948 0.00294262 430.735 
659 1 0.0111076 -0.00492458 0.00267413 378.471 
61 1 0.0132155 -0.00474062 0.00244835 399.656 
701 1 0.014857 -0.00485586 0.003585 448.289 
968 1 0.0144952 -0.00320426 0.00249262 403.456 
949 1 0.0164875 -0.00336364 0.00242094 392.981 
815 1 0.0184075 -0.00482756 0.00266398 411.765 
941 1 0.0219151 -0.00493099 0.00262965 405.624 
793 1 0.0203805 -0.00364863 0.00260586 413.618 
371 1 0.0217992 -0.00348212 0.00400576 509.526 
437 1 0.0237219 -0.00436751 0.00327611 403.397 
232 1 0.0256883 -0.00374046 0.00360621 441.691 
1053 1 0.0274331 -0.0032043 0.00278871 399.913 
1113 1 0.0294168 -0.00367225 0.0024619 431.987 
239 1 0.0285386 -0.00436099 0.00412155 509.638 
125 1 0.0313661 -0.00411936 0.00247416 400.836 
503 1 0.0305202 -0.00320882 0.00406428 501.693 
685 1 0.0338027 -0.00315327 0.00216831 365.501 
1183 1 0.0329001 -0.00455259 0.00369441 403.542 
607 1 0.0355435 -0.00451931 0.00290681 425.141 
670 1 0.0344352 -0.0033252 0.00406679 500.765 
337 1 0.0372277 -0.00348272 0.00320522 436.164 
1129 1 0.0385362 -0.00458563 0.00217014 389.252 
731 1 0.0397943 -0.0039422 0.00358553 481.251 
571 1 0.0429846 -0.00447594 0.00270542 379.172 
971 1 0.0428698 -0.00304037 0.00409671 488.333 
708 1 0.0447234 -0.00389631 0.00371446 421.683 
886 1 0.0466457 -0.00466918 0.00373368 392.908 
1181 1 0.0478672 -0.0031672 0.00257964 388.195 
7 1 0.000999995 -0.00224926 0.00351349 334.934 
194 1 0.00444504 -0.00241389 0.00266259 376.243 
824 1 0.00663811 -0.002199 0.00250483 388.605 
850 1 0.00789364 -0.0024833 0.00403545 409.635 
520 1 0.00878403 -0.00181657 0.00236061 394.775 
1122 1 0.011365 -0.00295271 0.00246086 409.527 
1071 1 0.0110248 -0.00157098 0.0038662 463.729 
1326 1 0.0128951 -0.00189142 0.00319063 426.844 
592 1 0.0149515 -0.00128289 0.00280888 422.152 
251 1 0.0169801 -0.001426 0.00247444 389.36 
702 1 0.0161354 -0.00228746 0.00406953 389.949 
1149 1 0.0180125 -0.00280077 0.00358607 456.933 
379 1 0.0189674 -0.00158635 0.00231587 389.064 
1284 1 0.0210353 -0.00176092 0.00269408 438.578 
794 1 0.0227832 -0.00284188 0.00238658 422.898 
448 1 0.0225297 -0.0013417 0.0039554 493.08 
1114 1 0.0242126 -0.00239472 0.00371208 494.124 
1335 1 0.0270199 -0.00120829 0.00282432 471.834 
687 1 0.0291767 -0.00168212 0.00229324 423.328 
753 1 0.0287052 -0.00236798 0.00411184 517.915 
628 1 0.0312942 -0.00143576 0.00223057 363.918 
937 1 0.0323336 -0.00265285 0.00342984 444.579 
637 1 0.0355118 -0.00215918 0.00284971 421.436 
998 1 0.0373732 -0.001489 0.00314284 413.479 
128 1 0.0393168 -0.00208354 0.00264561 383.858 
871 1 0.0411969 -0.00260098 0.00308983 365.481 
992 1 0.0426257 -0.00120919 0.00294356 384.524 
587 1 0.0438385 -0.00269671 0.00238109 400.639 
710 1 0.0445866 -0.00189194 0.0040522 477.781 
512 1 0.0461727 -0.00207084 0.00270327 344.091 
21 1 0.0478069 -0.00170423 0.00394202 468.431 
1170 1 0.0495766 -0.00258666 0.00344025 420.145 
822 1 0.000999987 -0.000473589 0.00259319 325.937 
109 1 0.0024542 -0.000832872 0.00391839 369.508 
528 1 0.00578114 -0.000842966 0.00394346 437.285 
242 1 0.00411277 -0.000225061 0.00285187 355.291 
144 1 0.00763281 -0.000245222 0.00300108 395.143 
1192 1 0.00914761 -0.000927255 0.00411472 445.91 
419 1 0.00945075 0.000512878 0.0026542 397.666 
412 1 0.0112445 -0.000305026 0.0023172 342.107 
1076 1 0.0126516 8.4254e-06 0.00379379 459.664 
62 1 0.0149188 0.000712616 0.0026792 425.95 
296 1 0.0169126 0.000567618 0.00261911 421.464 
1125 1 0.0179476 -0.000535511 0.00398153 450.765 
229 1 0.0189022 0.000404401 0.0024965 417.33 
1121 1 0.0207436 0.000143193 0.00323189 443.937 
1269 1 0.0233602 0.000450973 0.00361969 494.178 
182 1 0.0248598 -0.000777839 0.00272881 382.98 
438 1 0.0259157 0.000919027 0.00280466 462.17 
1194 1 0.0286065 0.000232978 0.00237905 421.582 
896 1 0.0318096 -0.000830484 0.00406577 488.657 
1030 1 0.0305119 0.000242498 0.00298658 429.931 
334 1 0.033172 -0.000725086 0.00260031 331.267 
19 1 0.0356439 -0.00022773 0.00234772 421.133 
65 1 0.0377027 0.000305464 0.00232351 400.532 
1120 1 0.0390534 -0.000489579 0.00382456 463.375 
1079 1 0.0395763 0.00096548 0.00255594 398.546 
1268 1 0.0407291 -0.00066785 0.0026123 394.186 
267 1 0.0425149 0.000767667 0.00266122 385.515 
307 1 0.0436758 2.84904e-05 0.00411238 481.293 
640 1 0.0445885 -0.000664407 0.00247324 409.27 
1235 1 0.0459945 0.00043435 0.00337651 394.798 
559 1 0.0474154 -0.000541394 0.0023621 343.231 
70 1 0.0493083 -0.000516063 0.00336394 419.43 
777 1 0.000999995 0.00110825 0.00381703 324.978 
471 1 0.000999996 0.00219067 0.00213525 318.132 
1043 1 0.00259936 0.0010612 0.00261711 345.238 
1165 1 0.0043985 0.00192522 0.00248846 364.919 
1342 1 0.00615918 0.00122393 0.00312734 386.269 
948 1 0.00824989 0.00209418 0.00238418 358.918 
73 1 0.00954494 0.00198347 0.0040064 428.581 
505 1 0.0109079 0.00187772 0.00253671 353.672 
921 1 0.0128894 0.00162969 0.00264707 359.511 
698 1 0.0148031 0.00263621 0.00214408 396.44 
542 1 0.0161275 0.00214771 0.00356089 407.367 
202 1 0.0179548 0.00149021 0.00405531 480.457 
1312 1 0.0198177 0.00190183 0.00345535 464.253 
1100 1 0.0218928 0.00199069 0.0026682 437.582 
902 1 0.024654 0.0020511 0.00386609 479.95 
715 1 0.0275718 0.00203697 0.00271739 456.632 
209 1 0.0292263 0.00157551 0.00374179 484.431 
68 1 0.030945 0.00242399 0.00317064 426.017 
189 1 0.0323332 0.0010903 0.00262827 378.217 
122 1 0.0331342 0.00221269 0.00408336 434.009 
1112 1 0.0343195 0.0011875 0.00284081 394.296 
1259 1 0.0371473 0.00244187 0.00221728 416.077 
570 1 0.0366618 0.0011466 0.00380976 479.137 
1070 1 0.0392343 0.0028996 0.00293307 371.339 