ITEM: TIMESTEP
15800000
ITEM: NUMBER OF ATOMS
5000
ITEM: BOX BOUNDS mm mm mm
0 0.1
-0.015 0.015
0 0.3
ITEM: ATOMS id type x y z f_Temp[0] 
977 1 0.00102825 -0.014 0.000999993 301.333 
581 1 0.00280536 -0.013082 0.000999998 300 
980 1 0.00536401 -0.0139934 0.000999992 303.139 
1252 1 0.0073668 -0.0139976 0.000999998 300 
648 1 0.00943464 -0.014 0.000999991 305.706 
1049 1 0.0114353 -0.0139953 0.000999998 300 
585 1 0.0133901 -0.0135651 0.000999998 300 
453 1 0.0153494 -0.0139699 0.000999997 301.392 
812 1 0.0173493 -0.0139998 0.000999993 307.764 
1111 1 0.0195007 -0.0134438 0.000999984 307.945 
713 1 0.021422 -0.014 0.000999994 304.785 
1065 1 0.0234048 -0.014 0.00126756 302.535 
82 1 0.0265155 -0.0139931 0.000999994 308.115 
383 1 0.0285156 -0.014 0.000999992 306.523 
930 1 0.030521 -0.014 0.000999997 304.29 
936 1 0.0322405 -0.014 0.00202133 308.165 
1185 1 0.0365621 -0.014 0.000999997 301.64 
961 1 0.0387276 -0.014 0.00158109 307.632 
397 1 0.0415067 -0.014 0.000999998 304.332 
434 1 0.0453634 -0.0139995 0.000999989 302.638 
845 1 0.0473634 -0.013996 0.000999993 301.032 
69 1 0.0493634 -0.014 0.000999998 300 
775 1 0.00100002 -0.0113754 0.000999998 300 
100 1 0.0029795 -0.0110896 0.000999992 304.704 
914 1 0.00557519 -0.0112015 0.00100005 307.404 
80 1 0.00757517 -0.0111953 0.000999991 310.797 
451 1 0.00998402 -0.0120769 0.000999996 312.184 
796 1 0.00840292 -0.0126653 0.00207425 305.68 
693 1 0.0116631 -0.012314 0.00206038 321.853 
1317 1 0.0131863 -0.0115688 0.000999987 318.27 
915 1 0.0160944 -0.0121103 0.000999994 309.529 
410 1 0.0190455 -0.011496 0.000999996 308.955 
830 1 0.0224371 -0.0122702 0.000999998 300.485 
320 1 0.0247898 -0.0125822 0.000999992 310.199 
112 1 0.0274126 -0.0122056 0.000999996 312.372 
75 1 0.0305709 -0.0120006 0.000999993 311.514 
44 1 0.0325472 -0.012308 0.000999993 307.409 
903 1 0.0346614 -0.0124727 0.000999987 314.891 
501 1 0.0399655 -0.0125406 0.000999994 311.912 
606 1 0.0381813 -0.0121244 0.00200969 323.058 
895 1 0.0424953 -0.0112468 0.000999991 314.194 
98 1 0.0440827 -0.0124633 0.000999998 304.745 
591 1 0.0463604 -0.0121908 0.000999998 300 
260 1 0.0483399 -0.0113954 0.000999988 309.217 
341 1 0.00236835 -0.00912792 0.000999989 306.501 
781 1 0.00434315 -0.00962605 0.00099999 310.799 
163 1 0.00630249 -0.00922482 0.000999992 314.548 
180 1 0.00969329 -0.0104144 0.00207298 337.978 
657 1 0.0113778 -0.0106424 0.000999994 312.822 
479 1 0.0130888 -0.00957115 0.00099999 323.177 
1334 1 0.0156328 -0.00933789 0.000999989 329.572 
236 1 0.0173021 -0.0105161 0.00100003 322.98 
463 1 0.0189969 -0.0094543 0.000999987 327.168 
1058 1 0.020961 -0.0109208 0.000999997 307.391 
214 1 0.021988 -0.00920459 0.000999991 327.411 
48 1 0.0236592 -0.010687 0.000999996 317.019 
1001 1 0.0256579 -0.0107646 0.000999989 315.489 
157 1 0.0275721 -0.0101849 0.00099999 330.416 
154 1 0.0295703 -0.010269 0.000999998 328.11 
849 1 0.03169 -0.0101267 0.000999998 303.157 
986 1 0.0337356 -0.0106994 0.000999992 320.432 
352 1 0.0353603 -0.00937906 0.000999998 324.658 
391 1 0.037078 -0.0107965 0.00099999 322.847 
828 1 0.0380495 -0.00904828 0.000999991 334.211 
1302 1 0.0391669 -0.010707 0.000999988 321.408 
1153 1 0.0410033 -0.00991491 0.000999992 325.131 
1029 1 0.0435086 -0.00935559 0.000999995 319.034 
734 1 0.0450013 -0.0106867 0.000999997 306.866 
168 1 0.0467898 -0.0104128 0.001852 314.907 
673 1 0.0479253 -0.00900397 0.000999991 315.365 
230 1 0.00208414 -0.00710001 0.000999993 314.508 
962 1 0.00400567 -0.00765473 0.000999989 320.447 
829 1 0.00807393 -0.0082964 0.000999989 327.169 
409 1 0.0100683 -0.00814704 0.00100015 322.902 
524 1 0.0120481 -0.00786324 0.000999994 319.848 
1221 1 0.0140493 -0.00781586 0.000999998 303.501 
1092 1 0.0173393 -0.0086903 0.00181755 350.518 
461 1 0.016624 -0.00701102 0.000999992 326.335 
1062 1 0.0197951 -0.00762048 0.000999986 346.607 
790 1 0.0215614 -0.00748521 0.00192831 373.851 
200 1 0.0233297 -0.00737885 0.000999993 346.588 
602 1 0.0247258 -0.00899514 0.000999997 314.664 
546 1 0.0254076 -0.0074302 0.00204216 320.849 
1240 1 0.0269157 -0.00822994 0.000999998 307.25 
247 1 0.0292594 -0.00829331 0.00099999 341.385 
973 1 0.0315646 -0.00811889 0.00099999 328.554 
1319 1 0.0334732 -0.00871669 0.000999992 328.283 
947 1 0.0365133 -0.00779137 0.00138712 310.565 
238 1 0.0398083 -0.00744564 0.000999998 317.005 
162 1 0.0418494 -0.00748754 0.000999997 308.923 
367 1 0.0444121 -0.00769988 0.0016651 316.403 
1274 1 0.0459344 -0.00881346 0.000999986 327.947 
1074 1 0.0498508 -0.00837717 0.000999998 300 
28 1 0.0010002 -0.00541922 0.000999994 308.248 
956 1 0.00299482 -0.00525823 0.000999998 300 
134 1 0.00500411 -0.00536152 0.000999994 327.004 
825 1 0.00684751 -0.00671657 0.000999995 325.954 
976 1 0.00894151 -0.00649438 0.000999994 338.251 
169 1 0.0109715 -0.00601028 0.000999993 335.127 
556 1 0.0129962 -0.00610228 0.000999995 336.981 
421 1 0.0149261 -0.00609382 0.001525 340.75 
1217 1 0.0184323 -0.00615665 0.000999998 330.295 
1325 1 0.0210598 -0.00573585 0.000999998 300 
496 1 0.0230199 -0.00528279 0.000999996 349.71 
639 1 0.024956 -0.005784 0.00099999 345.648 
1151 1 0.0269057 -0.0062297 0.000999984 345.97 
443 1 0.028983 -0.00546145 0.000999998 300 
1231 1 0.0310307 -0.00545224 0.000999998 300 
146 1 0.0303193 -0.00698151 0.00207498 363.027 
1290 1 0.0330366 -0.00676492 0.000999997 318.136 
1075 1 0.0353259 -0.00621403 0.000999995 319.062 
618 1 0.038025 -0.00654034 0.000999998 304.058 
83 1 0.0399098 -0.00544822 0.000999985 337.185 
974 1 0.0424605 -0.00544572 0.000999991 333.511 
1289 1 0.0449382 -0.00588859 0.000999992 324.3 
772 1 0.0466402 -0.00609637 0.0020296 343.372 
530 1 0.0482999 -0.00652692 0.000999994 316.949 
283 1 0.00371079 -0.00338748 0.000999998 300 
750 1 0.00569469 -0.00311861 0.000999998 300.007 
234 1 0.00689912 -0.00471724 0.000999994 337.554 
1025 1 0.00808652 -0.00310772 0.000999998 300 
139 1 0.00957752 -0.00451695 0.000999998 300 
791 1 0.0119528 -0.0041857 0.000999985 350.858 
402 1 0.0153626 -0.004214 0.000999994 336.088 
1087 1 0.017357 -0.00447035 0.000999991 344.004 
519 1 0.0193899 -0.00431182 0.000999993 349.054 
275 1 0.0216938 -0.00378558 0.000999994 335.962 
142 1 0.0249492 -0.00393316 0.00175782 361.513 
90 1 0.0267754 -0.00423396 0.000999996 337.359 
492 1 0.032699 -0.00434362 0.000999993 325.914 
749 1 0.0350091 -0.00423928 0.000999994 329.421 
1187 1 0.0369358 -0.00484893 0.000999997 312.261 
175 1 0.0402006 -0.00358298 0.00166048 349.336 
1050 1 0.0420853 -0.00347573 0.000999995 318.236 
846 1 0.0439728 -0.00413701 0.000999988 325.22 
424 1 0.0456873 -0.00431841 0.00201368 326.982 
1243 1 0.0474114 -0.00430605 0.000999998 313.931 
3721 1 0.0493439 -0.00482097 0.000999988 312.225 
77 1 0.0010636 -0.00207113 0.000999998 300 
37 1 0.00269634 -0.00135299 0.00200246 336.794 
1108 1 0.00442621 -0.00130241 0.000999983 335.345 
385 1 0.0074663 -0.0011745 0.000999988 341.22 
89 1 0.0100509 -0.00255538 0.000999998 300 
318 1 0.0118586 -0.00167902 0.000999998 322.497 
32 1 0.0138228 -0.00205531 0.000999998 319.585 
964 1 0.0158217 -0.00212183 0.000999998 313.39 
1180 1 0.0177825 -0.00251614 0.000999993 331.859 
885 1 0.0201852 -0.00247261 0.000999997 337.825 
264 1 0.0220832 -0.00158202 0.000999986 360.14 
258 1 0.0241116 -0.00228266 0.001 365.738 
291 1 0.0258098 -0.00110755 0.000999998 323.976 
1052 1 0.0282802 -0.00291658 0.000999992 355.961 
486 1 0.0304223 -0.00274938 0.000999993 340.82 
401 1 0.0328101 -0.00186878 0.000999996 317.612 
91 1 0.0348112 -0.00186302 0.00099999 331.332 
1248 1 0.0364864 -0.00291987 0.00127711 319.111 
1196 1 0.0384654 -0.00283657 0.000999995 316.427 
351 1 0.0409167 -0.00183629 0.000999995 323.195 
1003 1 0.0429072 -0.00158978 0.000999997 315.58 
545 1 0.0452833 -0.00262575 0.000999997 318.421 
31 1 0.0472197 -0.00212533 0.000999991 312.527 
1027 1 0.0491105 -0.00283465 0.000999996 303.367 
620 1 0.00150677 0.000624044 0.000999984 316.883 
817 1 0.00371005 0.000569561 0.000999998 300 
127 1 0.00591125 -0.000406584 0.00199601 368.588 
306 1 0.00756563 0.000823028 0.000999994 321.458 
167 1 0.00960301 -0.000600847 0.000999992 342.508 
721 1 0.0132144 -0.000384327 0.00191523 377.826 
33 1 0.0157859 -0.000111671 0.000999998 300 
522 1 0.0178028 -0.000348215 0.000999998 300 
1330 1 0.0201727 -0.000472077 0.000999998 300 
624 1 0.0239822 -0.000286865 0.000999988 353.089 
799 1 0.0222849 0.000162791 0.00195755 382.804 
644 1 0.0278053 -0.000973797 0.000999988 363.816 
181 1 0.0267603 0.000746311 0.000999994 356.412 
289 1 0.0300684 -0.000444246 0.000999989 343.369 
899 1 0.0320249 -2.93763e-05 0.000999997 314.398 
184 1 0.0341146 1.69046e-05 0.000999998 302.206 
1191 1 0.0369445 -0.000988198 0.000999998 306.38 
625 1 0.039582 -0.000291112 0.000999998 310.713 
250 1 0.0417007 7.81932e-06 0.000999996 318.975 
1247 1 0.0440455 0.000574356 0.000999991 323.801 
518 1 0.045939 -0.000588995 0.000999992 325.006 
198 1 0.0476838 0.00089861 0.000999998 300 
527 1 0.0488465 -0.000852146 0.000999995 305.657 
904 1 0.0494914 0.00083641 0.00185608 319.152 
305 1 0.00264916 0.00226565 0.00100002 321.472 
408 1 0.00557638 0.00129512 0.000999993 339.432 
1037 1 0.00643218 0.00282586 0.00196146 357.582 
1054 1 0.00968458 0.00225442 0.000999996 318.125 
310 1 0.0118959 0.00105166 0.000999998 306.358 
364 1 0.0129022 0.00293552 0.000999998 311.213 
392 1 0.0139525 0.00123354 0.000999991 338.728 
430 1 0.0169059 0.00174167 0.000999993 340.628 
723 1 0.0189961 0.00172788 0.000999992 336.517 
279 1 0.0209923 0.00135249 0.000999998 300 
1099 1 0.0248586 0.00295496 0.000999993 349.67 
1044 1 0.0241312 0.00141222 0.00204443 400.267 
1226 1 0.0268526 0.0027672 0.000999989 367.225 
474 1 0.0285332 0.00167963 0.000999992 342.117 
1175 1 0.0304799 0.00146998 0.0014079 351.568 
280 1 0.033244 0.00181831 0.000999998 306.495 
476 1 0.0350733 0.0024588 0.0014934 330.026 
735 1 0.0363974 0.00104339 0.000999985 344.929 
311 1 0.0384834 0.00158561 0.000999987 341.452 
562 1 0.0405308 0.00178272 0.000999989 330.716 
197 1 0.0425283 0.0018813 0.000999995 316.321 
615 1 0.0443907 0.00261031 0.000999986 325.254 
568 1 0.0458138 0.00132471 0.00156747 342.241 
1197 1 0.0497082 0.00263088 0.000999994 318.187 
366 1 0.00100063 0.00383724 0.000999997 304.915 
920 1 0.0043839 0.00326097 0.00099999 323.132 
1036 1 0.00644525 0.00457953 0.000999989 322.826 
314 1 0.00844753 0.00420508 0.000999998 300 
1224 1 0.0104826 0.00408961 0.000999992 329.9 
1124 1 0.0123036 0.0049164 0.000999992 336.005 
1286 1 0.0152051 0.00422662 0.000999983 345.889 
972 1 0.0186014 0.00369399 0.000999996 322.115 
493 1 0.0202753 0.0030119 0.00185588 381.336 
939 1 0.02075 0.00475605 0.000999988 356.575 
923 1 0.0220823 0.00307749 0.000999993 347.084 
241 1 0.0235323 0.00445514 0.00099999 357.192 
322 1 0.0254857 0.00479463 0.00147149 363.391 
485 1 0.0274261 0.00468323 0.000999995 343.254 
814 1 0.0294225 0.00456453 0.000999989 348.117 
1229 1 0.031651 0.00303909 0.000999991 338.369 
879 1 0.0329308 0.00472584 0.000999998 300 
1019 1 0.0354244 0.00436559 0.000999992 333.623 
26 1 0.0374497 0.00408384 0.000999998 300 
946 1 0.0393304 0.00340355 0.000999998 306.775 
1314 1 0.041438 0.0035651 0.000999997 318.018 
300 1 0.0429164 0.00497018 0.000999991 323.218 
757 1 0.0450352 0.00455741 0.000999996 315.448 
121 1 0.0464429 0.00313648 0.000999998 300 
2899 1 0.0491937 0.0045982 0.000999981 326.101 
235 1 0.0481355 0.00327053 0.00205706 346.471 
852 1 0.00147344 0.00578054 0.000999994 303.18 
143 1 0.00359123 0.00509717 0.000999997 316.78 
712 1 0.00611097 0.00655139 0.000999995 314.135 
857 1 0.00765647 0.00583318 0.0020467 328.433 
156 1 0.0101029 0.00606726 0.000999991 327.474 
733 1 0.0125017 0.00690655 0.000999988 334.243 
761 1 0.0142905 0.00601061 0.000999998 300 
1306 1 0.0170989 0.00501409 0.000999991 332.607 
1285 1 0.0165014 0.00696674 0.000999998 305.2 
237 1 0.0189814 0.0056897 0.000999997 328.176 
621 1 0.0222928 0.00602882 0.00099999 344.026 
1134 1 0.0242725 0.00631312 0.000999989 347.283 
1154 1 0.028986 0.0067722 0.000999991 347.72 
332 1 0.0310772 0.00569306 0.000999998 300 
404 1 0.0326452 0.00696578 0.000999994 328.4 
1299 1 0.0344553 0.0061151 0.000999994 326.034 
1088 1 0.0366774 0.00592881 0.000999988 356.02 
54 1 0.0390828 0.00538836 0.000999994 324.053 
176 1 0.0410339 0.00582837 0.000999992 318.67 
544 1 0.0455182 0.00651265 0.000999998 300 
469 1 0.0472716 0.00515104 0.000999995 309.947 
14 1 0.048698 0.00655308 0.000999996 312.508 
741 1 0.000999996 0.00772368 0.00100003 302.635 
187 1 0.00278473 0.00862649 0.000999991 305.337 
540 1 0.00401709 0.00705129 0.000999987 311.41 
193 1 0.00477569 0.00895994 0.000999998 300 
253 1 0.0068207 0.00842122 0.000999996 309.776 
959 1 0.00850773 0.00730957 0.000999992 316.346 
328 1 0.0114072 0.00885261 0.000999998 300 
718 1 0.0132987 0.00844915 0.0019926 334.155 
978 1 0.0151909 0.00848408 0.000999991 329.544 
488 1 0.0171399 0.00893312 0.000999991 324.982 
847 1 0.0186891 0.00766823 0.000999992 330.459 
473 1 0.0206943 0.00740141 0.000999998 300 
854 1 0.0226507 0.00799697 0.000999991 347.819 
207 1 0.0263751 0.00739623 0.000999998 300 
513 1 0.0293352 0.00896057 0.00151575 324.134 
651 1 0.0307733 0.00766986 0.000999989 331.842 
1298 1 0.0326488 0.00875108 0.00190147 320.863 
1244 1 0.0353883 0.00770327 0.00177925 354.571 
611 1 0.0372176 0.00791835 0.000999986 330.555 
730 1 0.0393582 0.0075489 0.000999997 318.944 
835 1 0.0417267 0.00744182 0.00195747 354.616 
110 1 0.0436805 0.00766014 0.000999996 316.535 
428 1 0.0469194 0.00795518 0.000999997 301.458 
174 1 0.0497579 0.00825521 0.000999987 318.846 
205 1 0.00100021 0.00991911 0.000999985 301.662 
177 1 0.00272024 0.0104073 0.001908 303.087 
674 1 0.00638342 0.0103728 0.000999989 307.208 
79 1 0.00942032 0.00908922 0.000999998 312.454 
1320 1 0.0104938 0.0103921 0.00207241 320.342 
779 1 0.012119 0.0108494 0.00100017 314.172 
292 1 0.0139551 0.0100566 0.000999991 320.316 
11 1 0.015904 0.0105056 0.00099999 319.608 
50 1 0.0188973 0.00950435 0.00176508 316.617 
1042 1 0.0207436 0.00942882 0.000999998 303.997 
694 1 0.0226224 0.0101149 0.000999989 331.692 
147 1 0.0240051 0.00907428 0.00200252 364.178 
983 1 0.0256274 0.00967679 0.000999989 327.58 
798 1 0.0278229 0.0101635 0.000999996 309.458 
966 1 0.0311269 0.00968438 0.000999995 311.535 
1186 1 0.033815 0.0102344 0.000999995 315.959 
1091 1 0.035782 0.00950263 0.000999993 326.91 
93 1 0.0382867 0.00960858 0.000999998 319.253 
1160 1 0.0399631 0.0106994 0.000999988 307.513 
575 1 0.0411762 0.00910919 0.00099999 319.841 
985 1 0.04312 0.00957997 0.000999996 307.812 
359 1 0.0453271 0.00941899 0.000999995 311.46 
969 1 0.0472618 0.00992566 0.000999998 303.229 
78 1 0.0492059 0.0103951 0.000999992 302.632 
363 1 0.000999994 0.0125472 0.000999995 300.324 
811 1 0.00296408 0.0122886 0.00127469 301.267 
743 1 0.00449491 0.0110312 0.000999993 302.369 
1251 1 0.00600936 0.0123375 0.000999995 302.064 
72 1 0.009055 0.0112752 0.000999994 306.796 
1313 1 0.0110293 0.0125265 0.00099999 306.36 
654 1 0.0139151 0.0120596 0.000999989 313.875 
271 1 0.0178306 0.011047 0.000999998 300 
15 1 0.0191506 0.0123316 0.00178965 311.966 
215 1 0.0208644 0.0116686 0.00099999 314.507 
420 1 0.0226323 0.0118976 0.00190669 318.213 
449 1 0.0244554 0.012149 0.000999998 305.042 
39 1 0.0263672 0.0115349 0.000999992 311.687 
188 1 0.0295985 0.0111181 0.000999991 317.377 
425 1 0.028129 0.0124814 0.000999992 305.097 
1095 1 0.0312193 0.01229 0.000999998 300.001 
1227 1 0.033219 0.0122468 0.000999995 307.341 
119 1 0.0353448 0.0122909 0.000999998 300 
650 1 0.0369685 0.0111127 0.000999989 315.206 
1138 1 0.0386186 0.0122428 0.000999992 308.404 
979 1 0.0405124 0.0124274 0.00184388 312.393 
316 1 0.0424183 0.0117034 0.000999998 301.483 
1297 1 0.0443447 0.0111611 0.00099999 308.98 
1206 1 0.046545 0.0118446 0.000999993 304.715 
380 1 0.0484365 0.0121497 0.00157368 301.195 
347 1 0.00209295 0.014 0.00183359 300.302 
309 1 0.00396196 0.014 0.000999998 300.471 
1130 1 0.00566062 0.014 0.00205571 301.465 
807 1 0.00735927 0.014 0.000999991 301.145 
114 1 0.00931258 0.0135525 0.000999993 302.223 
240 1 0.0123816 0.014 0.000999997 303.056 
672 1 0.0144052 0.014 0.000999998 302.137 
729 1 0.0161846 0.014 0.00191321 308.851 
758 1 0.0179409 0.0137147 0.000999996 305.102 
1038 1 0.0199206 0.014 0.000999993 304.459 
81 1 0.0217812 0.0139926 0.00173331 308.688 
676 1 0.0236419 0.0139761 0.000999994 304.211 
534 1 0.0264785 0.0137744 0.000999998 300 
526 1 0.0299137 0.014 0.000999997 301.018 
101 1 0.0322566 0.014 0.000999994 304.07 
1304 1 0.0342566 0.014 0.00099999 305.548 
1171 1 0.0370735 0.0139071 0.000999998 300 
442 1 0.0396097 0.014 0.000999989 305.621 
348 1 0.0423204 0.0137121 0.000999998 300 
626 1 0.0443208 0.014 0.000999994 301.176 
935 1 0.0466541 0.0139463 0.000999998 300 
766 1 0.0489339 0.014 0.000999995 300.633 
728 1 0.00392052 -0.014 0.00238429 303.834 
1249 1 0.00256444 -0.0132265 0.00363435 309.916 
929 1 0.00450257 -0.0131416 0.00412055 317.161 
1137 1 0.00634469 -0.014 0.00274303 308.467 
1097 1 0.0078871 -0.0133954 0.0038635 326.281 
598 1 0.0095839 -0.014 0.0029944 316.532 
1056 1 0.0115791 -0.014 0.0031329 318.132 
747 1 0.0135702 -0.014 0.00294461 309.698 
1337 1 0.0162623 -0.0135725 0.00273454 305.094 
789 1 0.0184969 -0.014 0.00263796 319.563 
894 1 0.0203583 -0.014 0.00336963 319.731 
507 1 0.0220847 -0.0132262 0.00272104 316.323 
170 1 0.0250702 -0.014 0.00238244 310.615 
993 1 0.0240141 -0.0139722 0.00408059 331.781 
1048 1 0.0275175 -0.0134232 0.00263438 320.067 
1267 1 0.0262053 -0.014 0.00402915 307.311 
43 1 0.0295 -0.014 0.00274091 311.976 
1169 1 0.0312288 -0.014 0.00374657 327.685 
1008 1 0.0331407 -0.0134146 0.0037886 316.707 
1168 1 0.0342309 -0.014 0.00221734 309.532 
288 1 0.0350354 -0.014 0.00404837 317.294 
158 1 0.0375146 -0.014 0.00317125 302.991 
47 1 0.0406544 -0.0133617 0.00269294 319.082 
274 1 0.0425983 -0.014 0.00386091 315.499 
652 1 0.0441287 -0.014 0.00257328 307.584 
689 1 0.0463276 -0.014 0.00275222 303.559 
1184 1 0.0483371 -0.014 0.00274697 303.359 
1026 1 0.000999991 -0.0126891 0.00251021 304.194 
261 1 0.000999995 -0.011326 0.00397369 308.68 
1343 1 0.00301409 -0.0113076 0.00397475 321.747 
87 1 0.00423913 -0.0120312 0.0022356 304.254 
355 1 0.00504244 -0.0112267 0.00391614 330.401 
1208 1 0.00656471 -0.0120234 0.00253146 306.127 
22 1 0.00843274 -0.011079 0.00371936 341.1 
378 1 0.0101037 -0.0120919 0.00329275 324.216 
1220 1 0.0128444 -0.012285 0.00367402 320.574 
4 1 0.0145348 -0.0124065 0.00221646 311.32 
336 1 0.015519 -0.0118383 0.00386221 315.84 
622 1 0.0176585 -0.0122282 0.00224094 310.078 
1077 1 0.0174136 -0.0112732 0.00416425 340.008 
736 1 0.0189909 -0.012447 0.00379728 362.773 
681 1 0.0203697 -0.0122626 0.00236006 306.831 
859 1 0.022665 -0.0115618 0.00410205 352.475 
806 1 0.0239103 -0.0124121 0.00278814 332.131 
1152 1 0.0260548 -0.0120702 0.00246214 330.785 
999 1 0.0279366 -0.0119296 0.00389669 332.543 
1316 1 0.0289735 -0.011821 0.0021899 325.63 
797 1 0.029953 -0.0124734 0.00395094 329.366 
1264 1 0.0315301 -0.0122716 0.00273395 307.228 
20 1 0.0336445 -0.0118753 0.00261523 339.47 
1336 1 0.0350723 -0.0118548 0.00401562 327.126 
1126 1 0.0354465 -0.0110244 0.00213404 327.118 
233 1 0.0359508 -0.0129117 0.00256269 307.51 
450 1 0.0369507 -0.0113847 0.00340195 334.346 
160 1 0.0392319 -0.0123737 0.00369314 349.073 
724 1 0.0409925 -0.0114286 0.00230715 333.213 
876 1 0.0419024 -0.0120667 0.00396995 342.588 
872 1 0.0425493 -0.0128203 0.00223337 305.217 
704 1 0.0449215 -0.0120423 0.00276611 308.09 
945 1 0.0469145 -0.0120959 0.00292509 314.143 
221 1 0.0489219 -0.0120878 0.00278378 316.158 
1245 1 0.000999993 -0.00928449 0.00395345 314.26 
744 1 0.00199872 -0.0103191 0.00256345 312.598 
635 1 0.00390569 -0.00984746 0.00293895 325.49 
136 1 0.00590224 -0.00974057 0.00289044 332.128 
418 1 0.00782929 -0.00974667 0.00235529 333.334 
1057 1 0.0112144 -0.00913699 0.00230648 331.81 
259 1 0.0102857 -0.010154 0.00396539 371.865 
1318 1 0.0125372 -0.0106075 0.00262928 350.387 
725 1 0.0121185 -0.00937428 0.00414712 408.061 
1205 1 0.0144017 -0.00990101 0.00247217 361.097 
422 1 0.0163222 -0.0103914 0.00273907 333.884 
924 1 0.0183927 -0.0103733 0.00267041 346.166 
395 1 0.0200087 -0.0107212 0.00379621 349.841 
1195 1 0.0205045 -0.00947314 0.00231414 329.584 
500 1 0.0225748 -0.0102262 0.0026161 341.257 
213 1 0.0246572 -0.0105577 0.00272838 330.891 
909 1 0.0263344 -0.0095128 0.00242 357.242 
740 1 0.0265318 -0.0105259 0.00413308 374.346 
521 1 0.0284821 -0.00929895 0.00254496 371.136 
997 1 0.0297075 -0.0105331 0.00353251 362.963 
445 1 0.0304806 -0.00911342 0.00235493 358.734 
1261 1 0.0322714 -0.0104207 0.00289093 314.061 
529 1 0.0340991 -0.00964259 0.00265859 351 
277 1 0.0355513 -0.00991304 0.00402491 371.345 
124 1 0.0367214 -0.00947922 0.002462 363.395 
960 1 0.0385169 -0.0102744 0.00284128 353.632 
510 1 0.0401572 -0.0106169 0.00393302 397.044 
533 1 0.0434256 -0.0107171 0.00268929 332.054 
552 1 0.044975 -0.00945352 0.0026339 365.238 
697 1 0.0458235 -0.0106606 0.00398403 376.903 
440 1 0.0475928 -0.00981798 0.00358448 348.246 
1021 1 0.0490805 -0.0100354 0.00226562 329.657 
95 1 0.0495155 -0.0105984 0.00413479 351.485 
564 1 0.00099999 -0.00828587 0.00219099 311.825 
1178 1 0.00294431 -0.00812116 0.0026297 316.16 
1005 1 0.00493772 -0.00799531 0.00273643 348.456 
284 1 0.00642498 -0.00807971 0.00407095 369.414 
27 1 0.00807073 -0.00718883 0.00266529 372.625 
344 1 0.00938651 -0.00866083 0.00298457 361.034 
455 1 0.0105623 -0.00708018 0.00263943 377.531 
636 1 0.0124312 -0.00770239 0.00298568 371.263 
1006 1 0.0139625 -0.00858986 0.00391714 408.881 
457 1 0.0154895 -0.00790228 0.00238508 315.542 
719 1 0.0174886 -0.00898444 0.00379015 392.753 
970 1 0.0173748 -0.00710733 0.00303941 366.018 
179 1 0.019032 -0.00819104 0.00275844 377.579 
138 1 0.0218439 -0.00861733 0.00355266 392.483 
818 1 0.0203462 -0.00738063 0.00402971 439.636 
246 1 0.0236322 -0.00852863 0.00260825 342.304 
52 1 0.0251761 -0.00874884 0.00386041 391.015 
788 1 0.0270982 -0.00816529 0.00368523 393.246 
988 1 0.028116 -0.00722336 0.00224411 380.963 
490 1 0.0294674 -0.00792801 0.00361716 405.452 
84 1 0.031579 -0.00882185 0.0040007 434.242 
574 1 0.0326897 -0.00787248 0.00263506 357.434 
1270 1 0.0346324 -0.00763772 0.00222151 351.393 
890 1 0.0361877 -0.00783246 0.00346367 413.983 
51 1 0.0380266 -0.00798128 0.00269142 395.047 
631 1 0.0399048 -0.00892272 0.00234495 326.86 
96 1 0.0393912 -0.00787195 0.00414942 471.423 
511 1 0.0410111 -0.00732224 0.00280826 341.192 
466 1 0.041122 -0.00887299 0.00410041 474.018 
1303 1 0.0421003 -0.00893786 0.00235721 370.368 
958 1 0.0436162 -0.00824038 0.00345969 414.145 
801 1 0.0466159 -0.00823817 0.00279014 367.216 
12 1 0.0485517 -0.00783185 0.00249456 338.386 
1322 1 0.00166231 -0.00652449 0.00286836 330.513 
1341 1 0.00396419 -0.00627271 0.00244508 339.479 
558 1 0.00510905 -0.00651309 0.00406821 393.788 
1255 1 0.00617585 -0.0056989 0.0025853 357.634 
56 1 0.00920399 -0.00554256 0.00273928 395.092 
1328 1 0.0124008 -0.00589791 0.00386145 460.691 
981 1 0.0141383 -0.00669754 0.00326137 383.111 
63 1 0.016488 -0.00538171 0.00255375 387.801 
942 1 0.0197866 -0.00626282 0.00246853 403.924 
1115 1 0.0187325 -0.00616465 0.0041654 469.795 
394 1 0.0204476 -0.00512481 0.00397452 402.76 
433 1 0.0221624 -0.00664013 0.00363846 456.855 
1004 1 0.0238057 -0.00623755 0.0025719 392.831 
957 1 0.0256907 -0.00562412 0.0028533 353.803 
436 1 0.0276169 -0.00518118 0.0025475 400.255 
769 1 0.0283152 -0.00634638 0.0040305 466.011 
141 1 0.0300155 -0.00540323 0.00326521 413.901 
59 1 0.0319484 -0.00601689 0.00271977 368.837 
104 1 0.0339034 -0.00541545 0.00219479 342.156 
489 1 0.0353605 -0.00612222 0.00408883 426.065 
1166 1 0.0366481 -0.00613693 0.00250276 318.56 
58 1 0.0378524 -0.00653306 0.00405974 438.588 
593 1 0.0392466 -0.00639765 0.00263055 366.04 
897 1 0.041185 -0.00533196 0.00253628 382.738 
1 1 0.0428685 -0.00661072 0.0025736 358.576 
759 1 0.0446992 -0.00576291 0.00298167 371.359 
396 1 0.0462771 -0.0066257 0.00392378 419.117 
1234 1 0.0482705 -0.00512445 0.00266 339.402 
3839 1 0.0498275 -0.00635211 0.00292208 362.191 
539 1 0.000999991 -0.00463755 0.00284091 320.092 
502 1 0.0028692 -0.00496099 0.00348449 335.577 
1090 1 0.00241806 -0.00326162 0.00253127 328.473 
666 1 0.00465322 -0.00440221 0.00271947 342.781 
102 1 0.00755571 -0.00396157 0.00273142 385.578 
263 1 0.00952789 -0.00357948 0.00294262 423.572 
659 1 0.0111076 -0.00492458 0.00267413 356.438 
61 1 0.0132155 -0.00474062 0.00244835 387.515 
701 1 0.014857 -0.00485586 0.003585 434.087 
968 1 0.0144952 -0.00320426 0.00249262 385 
949 1 0.0164875 -0.00336364 0.00242094 369.87 
815 1 0.0184075 -0.00482756 0.00266398 393.712 
941 1 0.0219151 -0.00493099 0.00262965 384.134 
793 1 0.0203805 -0.00364863 0.00260586 392.306 
371 1 0.0217992 -0.00348212 0.00400576 503.873 
437 1 0.0237219 -0.00436751 0.00327611 379.61 
232 1 0.0256883 -0.00374046 0.00360621 410.609 
1053 1 0.0274331 -0.0032043 0.00278871 368.769 
1113 1 0.0294168 -0.00367225 0.0024619 407.478 
239 1 0.0285386 -0.00436099 0.00412155 500.255 
125 1 0.0313661 -0.00411936 0.00247416 367.088 
503 1 0.0305202 -0.00320882 0.00406428 470.357 
685 1 0.0338027 -0.00315327 0.00216831 340.062 
1183 1 0.0329001 -0.00455259 0.00369441 360.129 
607 1 0.0355435 -0.00451931 0.00290681 387.599 
670 1 0.0344352 -0.0033252 0.00406679 476.073 
337 1 0.0372277 -0.00348272 0.00320522 392.576 
1129 1 0.0385362 -0.00458563 0.00217014 351.602 
731 1 0.0397943 -0.0039422 0.00358553 450.399 
571 1 0.0429846 -0.00447594 0.00270542 341.542 
971 1 0.0428698 -0.00304037 0.00409671 444.494 
708 1 0.0447234 -0.00389631 0.00371446 363.826 
886 1 0.0466457 -0.00466918 0.00373368 339.989 
1181 1 0.0478672 -0.0031672 0.00257964 338.076 
7 1 0.000999995 -0.00224926 0.00351349 334.727 
194 1 0.00444504 -0.00241389 0.00266259 368.62 
824 1 0.00663811 -0.002199 0.00250483 371.986 
850 1 0.00789365 -0.0024833 0.00403545 389.384 
520 1 0.00878403 -0.00181657 0.00236061 384.979 
1122 1 0.011365 -0.00295271 0.00246086 393.926 
1071 1 0.0110248 -0.00157098 0.0038662 449.627 
1326 1 0.0128951 -0.00189142 0.00319063 405.958 
592 1 0.0149515 -0.00128289 0.00280888 395.758 
251 1 0.0169801 -0.001426 0.00247444 360.941 
702 1 0.0161354 -0.00228746 0.00406953 355.524 
1149 1 0.0180125 -0.00280077 0.00358607 439.465 
379 1 0.0189674 -0.00158635 0.00231587 370.108 
1284 1 0.0210353 -0.00176092 0.00269408 415.473 
794 1 0.0227832 -0.00284188 0.00238658 406.104 
448 1 0.0225297 -0.0013417 0.0039554 469.487 
1114 1 0.0242126 -0.00239472 0.00371208 478.227 
1335 1 0.0270199 -0.00120829 0.00282432 458.517 
687 1 0.0291767 -0.00168212 0.00229324 404.811 
753 1 0.0287052 -0.00236798 0.00411184 504.604 
628 1 0.0312942 -0.00143576 0.00223057 340.876 
937 1 0.0323336 -0.00265285 0.00342984 408.817 
637 1 0.0355118 -0.00215918 0.00284971 390.054 
998 1 0.0373732 -0.001489 0.00314284 368.29 
128 1 0.0393168 -0.00208354 0.00264561 346.891 
871 1 0.0411969 -0.00260098 0.00308983 325.024 
992 1 0.0426257 -0.0012092 0.00294356 339.237 
587 1 0.0438385 -0.00269671 0.00238109 361.058 
710 1 0.0445866 -0.00189194 0.0040522 435.827 
512 1 0.0461727 -0.00207084 0.00270327 311.552 
21 1 0.0478069 -0.00170423 0.00394202 395.573 
1170 1 0.0495766 -0.00258666 0.00344025 367.578 
822 1 0.000999987 -0.000473589 0.00259319 323.722 
109 1 0.0024542 -0.000832872 0.00391839 370.293 
528 1 0.00578114 -0.000842966 0.00394346 445.927 
242 1 0.00411277 -0.000225061 0.00285187 346.299 
144 1 0.00763281 -0.000245222 0.00300108 380.418 
1192 1 0.00914761 -0.000927255 0.00411472 434.528 
419 1 0.00945075 0.000512878 0.0026542 381.647 
412 1 0.0112445 -0.000305026 0.0023172 328.135 
1076 1 0.0126516 8.42539e-06 0.00379379 433.678 
62 1 0.0149188 0.000712616 0.0026792 400.479 
296 1 0.0169126 0.000567618 0.00261911 396.573 
1125 1 0.0179476 -0.000535511 0.00398153 422.102 
229 1 0.0189022 0.000404401 0.0024965 393.541 
1121 1 0.0207436 0.000143193 0.00323189 416.829 
1269 1 0.0233602 0.000450973 0.00361969 477.237 
182 1 0.0248598 -0.000777839 0.00272881 359.542 
438 1 0.0259157 0.000919027 0.00280466 443.175 
1194 1 0.0286065 0.000232978 0.00237905 400.628 
896 1 0.0318096 -0.000830484 0.00406577 457.71 
1030 1 0.0305119 0.000242498 0.00298658 399.66 
334 1 0.033172 -0.000725086 0.00260031 312.626 
19 1 0.0356439 -0.00022773 0.00234772 389.411 
65 1 0.0377027 0.000305464 0.00232351 360.634 
1120 1 0.0390534 -0.000489579 0.00382456 419.892 
1079 1 0.0395763 0.00096548 0.00255594 357.842 
1268 1 0.0407291 -0.00066785 0.0026123 352.565 
267 1 0.0425149 0.000767667 0.00266122 341.306 
307 1 0.0436758 2.84905e-05 0.00411238 446.414 
640 1 0.0445885 -0.000664407 0.00247324 369.917 
1235 1 0.0459945 0.000434349 0.00337651 345.576 
559 1 0.0474154 -0.000541395 0.0023621 311.785 
70 1 0.0493083 -0.000516063 0.00336394 347.459 
777 1 0.000999995 0.00110825 0.00381703 321.788 
471 1 0.000999996 0.00219067 0.00213525 315.433 
1043 1 0.00259936 0.0010612 0.00261711 339.213 
1165 1 0.0043985 0.00192522 0.00248846 359.961 
1342 1 0.00615918 0.00122393 0.00312734 376.117 
948 1 0.00824989 0.00209418 0.00238418 343.944 
73 1 0.00954494 0.00198347 0.0040064 412.412 
505 1 0.0109079 0.00187772 0.00253671 334.492 
921 1 0.0128894 0.00162969 0.00264707 336.517 
698 1 0.0148031 0.00263621 0.00214408 377.562 
542 1 0.0161275 0.00214771 0.00356089 380.997 
202 1 0.0179548 0.00149021 0.00405531 460.209 
1312 1 0.0198177 0.00190183 0.00345535 443.787 
1100 1 0.0218928 0.00199069 0.0026682 417.978 
902 1 0.024654 0.0020511 0.00386609 464.788 
715 1 0.0275718 0.00203697 0.00271739 432.629 
209 1 0.0292263 0.00157551 0.00374179 456.653 
68 1 0.030945 0.00242399 0.00317064 390.393 
189 1 0.0323332 0.0010903 0.00262827 344.741 
122 1 0.0331342 0.00221269 0.00408336 387.687 
1112 1 0.0343195 0.0011875 0.00284081 355.414 
1259 1 0.0371473 0.00244187 0.00221728 384.923 
570 1 0.0366618 0.0011466 0.00380976 431.648 
1070 1 0.0392343 0.0028996 0.00293307 333.673 