ITEM: TIMESTEP
21700000
ITEM: NUMBER OF ATOMS
5000
ITEM: BOX BOUNDS mm mm mm
0 0.1
-0.015 0.015
0 0.3
ITEM: ATOMS id type x y z f_Temp[0] 
977 1 0.00102825 -0.014 0.000999993 302.02 
581 1 0.00280539 -0.013082 0.000999998 300 
980 1 0.00536401 -0.0139934 0.000999992 304.601 
1252 1 0.00736682 -0.0139977 0.000999998 300 
648 1 0.00943464 -0.014 0.000999991 307.71 
1049 1 0.0114353 -0.0139954 0.000999998 300 
585 1 0.0133901 -0.0135649 0.000999998 300 
453 1 0.0153493 -0.0139698 0.000999997 302.565 
812 1 0.0173493 -0.0139999 0.000999993 309.497 
1111 1 0.0195007 -0.0134438 0.000999984 309.869 
713 1 0.021422 -0.014 0.000999994 307.277 
1065 1 0.0234048 -0.014 0.00126756 304.366 
82 1 0.0265155 -0.0139931 0.000999994 312.677 
383 1 0.0285156 -0.014 0.000999992 310.097 
930 1 0.030521 -0.014 0.000999997 307.192 
936 1 0.0322405 -0.014 0.00202133 313.282 
1185 1 0.0365621 -0.014 0.000999997 304.658 
961 1 0.0387276 -0.014 0.00158109 315.014 
397 1 0.0415067 -0.014 0.000999998 310.49 
434 1 0.0453634 -0.0139995 0.000999989 308.231 
845 1 0.0473634 -0.013996 0.000999993 304.646 
69 1 0.0493634 -0.014 0.000999998 300 
775 1 0.00100002 -0.0113754 0.000999998 300 
100 1 0.0029795 -0.0110896 0.000999992 306.619 
914 1 0.00557519 -0.0112015 0.00100005 311.066 
80 1 0.00757517 -0.0111953 0.000999991 314.675 
451 1 0.00998402 -0.0120769 0.000999996 316.994 
796 1 0.00840292 -0.0126653 0.00207425 309.196 
693 1 0.0116631 -0.012314 0.00206038 327.687 
1317 1 0.0131863 -0.0115688 0.000999987 322.209 
915 1 0.0160944 -0.0121103 0.000999994 313.653 
410 1 0.0190455 -0.011496 0.000999996 312.97 
830 1 0.0224371 -0.0122702 0.000999998 301.094 
320 1 0.0247898 -0.0125822 0.000999992 314.554 
112 1 0.0274126 -0.0122056 0.000999996 319.293 
75 1 0.0305709 -0.0120006 0.000999993 317.675 
44 1 0.0325472 -0.012308 0.000999993 312.174 
903 1 0.0346614 -0.0124727 0.000999987 323.292 
501 1 0.0399655 -0.0125406 0.000999994 321.04 
606 1 0.0381813 -0.0121244 0.00200969 338.39 
895 1 0.0424953 -0.0112468 0.000999991 327.394 
98 1 0.0440827 -0.0124633 0.000999998 314.234 
591 1 0.0463636 -0.0121887 0.000999998 300 
260 1 0.0483399 -0.0113954 0.000999988 324.81 
341 1 0.00236835 -0.00912792 0.000999989 308.38 
781 1 0.00434315 -0.00962605 0.00099999 313.941 
163 1 0.00630249 -0.00922482 0.000999992 318.423 
180 1 0.00969329 -0.0104144 0.00207298 348.752 
657 1 0.0113778 -0.0106424 0.000999994 317.801 
479 1 0.0130888 -0.00957115 0.00099999 327.009 
1334 1 0.0156328 -0.00933789 0.000999989 334.848 
236 1 0.0173021 -0.0105161 0.00100003 330.541 
463 1 0.0189969 -0.0094543 0.000999987 334.451 
1058 1 0.020961 -0.0109208 0.000999997 311.015 
214 1 0.021988 -0.00920459 0.000999991 334.669 
48 1 0.0236592 -0.010687 0.000999996 325.271 
1001 1 0.0256579 -0.0107646 0.000999989 321.752 
157 1 0.0275721 -0.0101849 0.00099999 340.626 
154 1 0.0295703 -0.010269 0.000999998 338.053 
849 1 0.0316898 -0.0101272 0.000999998 306.933 
986 1 0.0337356 -0.0106994 0.000999992 329.564 
352 1 0.0353603 -0.00937906 0.000999998 339.552 
391 1 0.037078 -0.0107965 0.00099999 336.017 
828 1 0.0380495 -0.00904828 0.000999991 349.092 
1302 1 0.0391669 -0.010707 0.000999988 333.292 
1153 1 0.0410033 -0.00991491 0.000999992 340.164 
1029 1 0.0435086 -0.00935559 0.000999995 334.312 
734 1 0.0450013 -0.0106867 0.000999997 319.275 
168 1 0.0467898 -0.0104128 0.001852 338.654 
673 1 0.0479253 -0.00900397 0.000999991 337.212 
230 1 0.00208414 -0.00710001 0.000999993 316.994 
962 1 0.00400567 -0.00765473 0.000999989 324.064 
829 1 0.00807393 -0.0082964 0.000999989 332.407 
409 1 0.0100683 -0.00814704 0.00100015 330.235 
524 1 0.0120481 -0.00786324 0.000999994 324.904 
1221 1 0.0140493 -0.00781583 0.000999998 306.009 
1092 1 0.0173393 -0.0086903 0.00181755 360.328 
461 1 0.016624 -0.00701102 0.000999992 333.458 
1062 1 0.0197951 -0.00762048 0.000999986 354.824 
790 1 0.0215614 -0.00748521 0.00192831 382.567 
200 1 0.0233297 -0.00737885 0.000999993 354.19 
602 1 0.0247258 -0.00899514 0.000999997 322.073 
546 1 0.0254076 -0.0074302 0.00204216 331.828 
1240 1 0.0269157 -0.00822994 0.000999998 312.43 
247 1 0.0292594 -0.00829331 0.00099999 353.601 
973 1 0.0315646 -0.00811889 0.00099999 341.338 
1319 1 0.0334732 -0.00871669 0.000999992 342.141 
947 1 0.0365133 -0.00779137 0.00138712 324.43 
238 1 0.0398083 -0.00744564 0.000999998 332.691 
162 1 0.0418495 -0.00748741 0.000999997 322.216 
367 1 0.0444121 -0.00769988 0.0016651 338.425 
1274 1 0.0459344 -0.00881346 0.000999986 350.172 
1074 1 0.0498521 -0.00837837 0.000999998 300 
28 1 0.0010002 -0.00541922 0.000999994 309.915 
956 1 0.00299512 -0.00525881 0.000999998 300 
134 1 0.00500411 -0.00536152 0.000999994 332.778 
825 1 0.00684751 -0.00671657 0.000999995 330.325 
976 1 0.00894151 -0.00649438 0.000999994 342.724 
169 1 0.0109715 -0.00601028 0.000999993 343.563 
556 1 0.0129962 -0.00610228 0.000999995 344.094 
421 1 0.0149261 -0.00609382 0.001525 350.65 
1217 1 0.0184323 -0.00615665 0.000999998 338.573 
1325 1 0.0210611 -0.00573804 0.000999998 300 
496 1 0.0230199 -0.00528279 0.000999996 360.393 
639 1 0.024956 -0.005784 0.00099999 356.361 
1151 1 0.0269057 -0.0062297 0.000999984 356.01 
443 1 0.0289779 -0.00543972 0.000999998 300 
1231 1 0.0310305 -0.00545214 0.000999998 300 
146 1 0.0303193 -0.00698151 0.00207498 387.116 
1290 1 0.0330366 -0.00676492 0.000999997 332.917 
1075 1 0.0353259 -0.00621403 0.000999995 332.009 
618 1 0.038025 -0.00654034 0.000999998 311.328 
83 1 0.0399098 -0.00544822 0.000999985 357.5 
974 1 0.0424605 -0.00544572 0.000999991 353.843 
1289 1 0.0449382 -0.00588859 0.000999992 346.174 
772 1 0.0466402 -0.00609637 0.0020296 376.803 
530 1 0.0482999 -0.00652692 0.000999994 339.96 
283 1 0.00371049 -0.0033874 0.000999998 300 
750 1 0.00569453 -0.00311852 0.000999998 300.003 
234 1 0.00689912 -0.00471724 0.000999994 343.438 
1025 1 0.00808696 -0.0031081 0.000999998 300 
139 1 0.00957584 -0.00451692 0.000999998 300 
791 1 0.0119528 -0.0041857 0.000999985 358.93 
402 1 0.0153626 -0.004214 0.000999994 345.369 
1087 1 0.017357 -0.00447035 0.000999991 355.155 
519 1 0.0193899 -0.00431182 0.000999993 361.077 
275 1 0.0216938 -0.00378558 0.000999994 344.897 
142 1 0.0249492 -0.00393316 0.00175782 380.351 
90 1 0.0267754 -0.00423396 0.000999996 349.626 
492 1 0.032699 -0.00434362 0.000999993 341.459 
749 1 0.0350091 -0.00423928 0.000999994 346.14 
1187 1 0.0369358 -0.00484893 0.000999997 326.045 
175 1 0.0402006 -0.00358298 0.00166048 374.773 
1050 1 0.0420853 -0.00347573 0.000999995 334.048 
846 1 0.0439728 -0.00413701 0.000999988 346.603 
424 1 0.0456873 -0.00431841 0.00201368 359.253 
1243 1 0.0474114 -0.00430605 0.000999998 338.364 
3721 1 0.0493439 -0.00482097 0.000999988 333.919 
77 1 0.00106535 -0.00208164 0.000999998 300 
37 1 0.00269634 -0.00135299 0.00200246 341.25 
1108 1 0.00442621 -0.00130241 0.000999983 339.539 
385 1 0.0074663 -0.0011745 0.000999988 346.576 
89 1 0.0100507 -0.00255572 0.000999998 300 
318 1 0.0118586 -0.00167902 0.000999998 330.37 
32 1 0.0138228 -0.00205531 0.000999998 327.211 
964 1 0.0158217 -0.00212183 0.000999998 322.154 
1180 1 0.0177825 -0.00251614 0.000999993 341.507 
885 1 0.0201852 -0.00247261 0.000999997 349.043 
264 1 0.0220832 -0.00158202 0.000999986 371.596 
258 1 0.0241116 -0.00228266 0.001 384.407 
291 1 0.0258098 -0.00110755 0.000999998 334.683 
1052 1 0.0282802 -0.00291658 0.000999992 369.893 
486 1 0.0304223 -0.00274938 0.000999993 353.98 
401 1 0.0328101 -0.00186878 0.000999996 330.769 
91 1 0.0348112 -0.00186302 0.00099999 345.287 
1248 1 0.0364864 -0.00291987 0.00127711 335.462 
1196 1 0.0384654 -0.00283657 0.000999995 332.101 
351 1 0.0409167 -0.00183629 0.000999995 342.35 
1003 1 0.0429074 -0.00158964 0.000999997 332.203 
545 1 0.0452833 -0.00262575 0.000999997 339.186 
31 1 0.0472197 -0.00212533 0.000999991 331.29 
1027 1 0.0491105 -0.00283465 0.000999996 313.509 
620 1 0.00150677 0.000624044 0.000999984 319.618 
817 1 0.00370949 0.00056968 0.000999998 300 
127 1 0.00591125 -0.000406584 0.00199601 374.809 
306 1 0.00756563 0.000823028 0.000999994 327.183 
167 1 0.00960301 -0.000600847 0.000999992 350.454 
721 1 0.0132144 -0.000384327 0.00191523 398.051 
33 1 0.0157876 -0.000111163 0.000999998 300 
522 1 0.0178047 -0.000352198 0.000999998 300 
1330 1 0.0201725 -0.000472034 0.000999998 300 
624 1 0.0239822 -0.000286865 0.000999988 367.652 
799 1 0.0222849 0.000162791 0.00195755 406.398 
644 1 0.0278053 -0.000973797 0.000999988 374.378 
181 1 0.0267602 0.000746035 0.000999994 367.338 
289 1 0.0300684 -0.000444246 0.000999989 356.487 
899 1 0.0320249 -2.93762e-05 0.000999997 327.656 
184 1 0.0341146 1.68661e-05 0.000999998 306.376 
1191 1 0.0369447 -0.000988274 0.000999998 314.044 
625 1 0.039593 -0.000291013 0.000999998 323.17 
250 1 0.0417007 7.81933e-06 0.000999996 339.658 
1247 1 0.0440457 0.000574477 0.000999991 342.292 
518 1 0.045939 -0.000588995 0.000999992 347.104 
198 1 0.0476838 0.000898665 0.000999998 300 
527 1 0.0488465 -0.000852146 0.000999995 319.969 
904 1 0.0494914 0.00083641 0.00185608 350.642 
305 1 0.00264916 0.00226565 0.00100002 325.912 
408 1 0.00557638 0.00129512 0.000999993 344.705 
1037 1 0.00643218 0.00282586 0.00196146 366.436 
1054 1 0.00968458 0.00225442 0.000999996 327.119 
310 1 0.0118962 0.0010515 0.000999998 310.808 
364 1 0.0129022 0.00293552 0.000999998 318.191 
392 1 0.0139525 0.00123354 0.000999991 351.434 
430 1 0.0169059 0.00174167 0.000999993 353.745 
723 1 0.0189958 0.0017279 0.000999992 347.488 
279 1 0.0209923 0.00135248 0.000999998 300 
1099 1 0.0248586 0.00295496 0.000999993 361.286 
1044 1 0.0241312 0.00141222 0.00204443 416.735 
1226 1 0.0268526 0.0027672 0.000999989 380.825 
474 1 0.0285332 0.00167963 0.000999992 357.814 
1175 1 0.0304799 0.00146998 0.0014079 372.36 
280 1 0.033244 0.0018183 0.000999998 315.54 
476 1 0.0350733 0.0024588 0.0014934 354.977 
735 1 0.0363974 0.00104339 0.000999985 365.118 
311 1 0.0384834 0.00158561 0.000999987 363.619 
562 1 0.0405308 0.00178272 0.000999989 351.156 
197 1 0.0425283 0.0018813 0.000999995 332.105 
615 1 0.0443907 0.00261031 0.000999986 346.449 
568 1 0.0458138 0.00132471 0.00156747 376.232 
1197 1 0.0497082 0.00263088 0.000999994 345.239 
366 1 0.00100063 0.00383724 0.000999997 306.294 
920 1 0.0043839 0.00326097 0.00099999 327.371 
1036 1 0.00644525 0.00457953 0.000999989 328.24 
314 1 0.00844601 0.00420081 0.000999998 300 
1224 1 0.0104826 0.00408961 0.000999992 337.825 
1124 1 0.0123036 0.0049164 0.000999992 345.272 
1286 1 0.0152051 0.00422662 0.000999983 355.972 
972 1 0.0186014 0.00369399 0.000999996 329.022 
493 1 0.0202753 0.0030119 0.00185588 398.565 
939 1 0.02075 0.00475605 0.000999988 367.247 
923 1 0.0220823 0.00307749 0.000999993 356.809 
241 1 0.0235323 0.00445514 0.00099999 369.717 
322 1 0.0254857 0.00479463 0.00147149 377.097 
485 1 0.0274261 0.00468323 0.000999995 355.319 
814 1 0.0294225 0.00456453 0.000999989 362.688 
1229 1 0.031651 0.00303909 0.000999991 356.436 
879 1 0.032934 0.00472713 0.000999998 300 
1019 1 0.0354244 0.00436559 0.000999992 347.484 
26 1 0.0374497 0.00408388 0.000999998 300 
946 1 0.0393305 0.00340354 0.000999998 317.738 
1314 1 0.041438 0.0035651 0.000999997 336.245 
300 1 0.0429164 0.00497018 0.000999991 342.334 
757 1 0.0450353 0.00455744 0.000999996 330.99 
121 1 0.0464429 0.00313648 0.000999998 300 
2899 1 0.0491937 0.0045982 0.000999981 350.856 
235 1 0.0481355 0.00327053 0.00205706 383.578 
852 1 0.00147344 0.00578054 0.000999994 304.413 
143 1 0.00359123 0.00509717 0.000999997 320.638 
712 1 0.00611097 0.00655139 0.000999995 319.788 
857 1 0.00765647 0.00583318 0.0020467 339.003 
156 1 0.0101026 0.00606708 0.000999991 334.222 
733 1 0.0125017 0.00690655 0.000999988 342.958 
761 1 0.0142907 0.00601078 0.000999998 300 
1306 1 0.0170989 0.00501409 0.000999991 339.155 
1285 1 0.0165013 0.00696609 0.000999998 310.12 
237 1 0.0189814 0.0056897 0.000999997 335.593 
621 1 0.0222928 0.00602882 0.00099999 351.94 
1134 1 0.0242725 0.00631312 0.000999989 357.084 
1154 1 0.028986 0.0067722 0.000999991 358.888 
332 1 0.0310772 0.00569306 0.000999998 300 
404 1 0.0326452 0.00696578 0.000999994 341.356 
1299 1 0.0344553 0.0061151 0.000999994 340.132 
1088 1 0.0366774 0.00592881 0.000999988 370.662 
54 1 0.0390828 0.00538836 0.000999994 337.224 
176 1 0.0410339 0.00582837 0.000999992 334.872 
544 1 0.0455144 0.00651495 0.000999998 300 
469 1 0.0472716 0.00515104 0.000999995 326.917 
14 1 0.0486979 0.00655309 0.000999996 332.608 
741 1 0.000999996 0.00772368 0.00100003 304.125 
187 1 0.00278473 0.00862649 0.000999991 308.121 
540 1 0.00401709 0.00705129 0.000999987 314.952 
193 1 0.0047778 0.00895697 0.000999998 300 
253 1 0.0068207 0.00842122 0.000999996 315.002 
959 1 0.00850773 0.00730957 0.000999992 323.56 
328 1 0.0114071 0.00884979 0.000999998 300 
718 1 0.0132987 0.00844915 0.0019926 345.694 
978 1 0.0151909 0.00848408 0.000999991 336.45 
488 1 0.0171399 0.00893312 0.000999991 332.199 
847 1 0.0186891 0.00766823 0.000999992 338.83 
473 1 0.0206948 0.0074012 0.000999998 300 
854 1 0.0226507 0.00799697 0.000999991 358.307 
207 1 0.026375 0.00739616 0.000999998 300.128 
513 1 0.0293352 0.00896057 0.00151575 335.387 
651 1 0.0307733 0.00766986 0.000999989 342.123 
1298 1 0.0326488 0.00875108 0.00190147 337.739 
1244 1 0.0353883 0.00770327 0.00177925 376.371 
611 1 0.0372176 0.00791835 0.000999986 345.252 
730 1 0.0393602 0.00754613 0.000999997 331.824 
835 1 0.0417267 0.00744182 0.00195747 381.594 
110 1 0.0436805 0.00766014 0.000999996 330.316 
428 1 0.0469194 0.00795518 0.000999997 307.366 
174 1 0.0497579 0.00825521 0.000999987 342.983 
205 1 0.00100021 0.00991911 0.000999985 302.836 
177 1 0.00272024 0.0104073 0.001908 305.594 
674 1 0.00638342 0.0103728 0.000999989 311.064 
79 1 0.00942032 0.00908922 0.000999998 319.506 
1320 1 0.0104938 0.0103921 0.00207241 329.525 
779 1 0.012119 0.0108494 0.00100017 321.348 
292 1 0.0139551 0.0100566 0.000999991 327.385 
11 1 0.015904 0.0105056 0.00099999 325.483 
50 1 0.0188973 0.00950435 0.00176508 325.799 
1042 1 0.0207436 0.0094288 0.000999998 307.575 
694 1 0.0226224 0.0101149 0.000999989 339.73 
147 1 0.0240051 0.00907428 0.00200252 376.001 
983 1 0.0256274 0.00967679 0.000999989 337.4 
798 1 0.0278229 0.0101635 0.000999996 315.582 
966 1 0.0311269 0.00968438 0.000999995 320.796 
1186 1 0.033815 0.0102344 0.000999995 326.945 
1091 1 0.035782 0.00950263 0.000999993 341.047 
93 1 0.0382867 0.00960858 0.000999998 333.587 
1160 1 0.0399631 0.0106994 0.000999988 317.126 
575 1 0.0411762 0.00910919 0.00099999 335.241 
985 1 0.04312 0.00957997 0.000999996 317.655 
359 1 0.0453271 0.00941899 0.000999995 324.263 
969 1 0.0472618 0.00992566 0.000999998 310.541 
78 1 0.0492059 0.0103951 0.000999992 310.898 
363 1 0.000999994 0.0125472 0.000999995 300.754 
811 1 0.00296408 0.0122886 0.00127469 302.64 
743 1 0.00449491 0.0110312 0.000999993 304.255 
1251 1 0.00600936 0.0123375 0.000999995 303.678 
72 1 0.009055 0.0112752 0.000999994 311.012 
1313 1 0.0110293 0.0125265 0.00099999 310.054 
654 1 0.0139151 0.0120596 0.000999989 318.824 
271 1 0.0178307 0.0110466 0.000999998 300 
15 1 0.0191506 0.0123316 0.00178965 318.978 
215 1 0.0208644 0.0116686 0.00099999 320.363 
420 1 0.0226323 0.0118976 0.00190669 328.039 
449 1 0.0244554 0.012149 0.000999998 310.095 
39 1 0.0263672 0.0115349 0.000999992 317.793 
188 1 0.0295985 0.0111181 0.000999991 326.063 
425 1 0.028129 0.0124814 0.000999992 308.584 
1095 1 0.0312193 0.01229 0.000999998 300 
1227 1 0.033219 0.0122468 0.000999995 314.017 
119 1 0.035345 0.012292 0.000999998 300 
650 1 0.0369685 0.0111127 0.000999989 326.64 
1138 1 0.0386186 0.0122428 0.000999992 318.107 
979 1 0.0405124 0.0124274 0.00184388 326.059 
316 1 0.0424181 0.0117033 0.000999998 305.72 
1297 1 0.0443447 0.0111611 0.00099999 320.871 
1206 1 0.046545 0.0118446 0.000999993 315.035 
380 1 0.0484365 0.0121497 0.00157368 307.12 
347 1 0.00209295 0.014 0.00183359 300.741 
309 1 0.00396196 0.014 0.000999998 301.06 
1130 1 0.00566062 0.014 0.00205571 302.882 
807 1 0.00735927 0.014 0.000999991 302.23 
114 1 0.00931258 0.0135525 0.000999993 304.07 
240 1 0.0123816 0.014 0.000999997 304.742 
672 1 0.0144052 0.014 0.000999998 303.482 
729 1 0.0161846 0.014 0.00191321 312.44 
758 1 0.0179409 0.0137147 0.000999996 308.467 
1038 1 0.0199206 0.014 0.000999993 307.569 
81 1 0.0217812 0.0139926 0.00173331 313.913 
676 1 0.0236419 0.0139761 0.000999994 307.429 
534 1 0.0264764 0.013781 0.000999998 300 
526 1 0.0299137 0.014 0.000999997 302.945 
101 1 0.0322566 0.014 0.000999994 307.85 
1304 1 0.0342566 0.014 0.00099999 309.64 
1171 1 0.037058 0.0139147 0.000999998 300 
442 1 0.0396097 0.014 0.000999989 313.053 
348 1 0.042317 0.0137136 0.000999998 300 
626 1 0.0443208 0.014 0.000999994 304.806 
935 1 0.0466467 0.0139508 0.000999998 300 
766 1 0.0489339 0.014 0.000999995 304.301 
728 1 0.00392052 -0.014 0.00238429 305.767 
1249 1 0.00256444 -0.0132265 0.00363435 313.518 
929 1 0.00450257 -0.0131416 0.00412055 323.602 
1137 1 0.00634469 -0.014 0.00274303 311.228 
1097 1 0.0078871 -0.0133954 0.0038635 331.091 
598 1 0.0095839 -0.014 0.0029944 320.076 
1056 1 0.0115791 -0.014 0.0031329 321.69 
747 1 0.0135702 -0.014 0.00294461 312.953 
1337 1 0.0162623 -0.0135725 0.00273454 308.071 
789 1 0.0184969 -0.014 0.00263796 322.726 
894 1 0.0203583 -0.014 0.00336963 324.314 
507 1 0.0220847 -0.0132262 0.00272104 322.734 
170 1 0.0250702 -0.014 0.00238244 315.403 
993 1 0.0240141 -0.0139722 0.00408059 339.868 
1048 1 0.0275175 -0.0134232 0.00263438 327.884 
1267 1 0.0262053 -0.014 0.00402915 312.156 
43 1 0.0295 -0.014 0.00274091 319.002 
1169 1 0.0312288 -0.014 0.00374657 337.949 
1008 1 0.0331407 -0.0134146 0.0037886 328.483 
1168 1 0.0342309 -0.014 0.00221734 316.611 
288 1 0.0350354 -0.014 0.00404837 327.571 
158 1 0.0375146 -0.014 0.00317125 308.67 
47 1 0.0406544 -0.0133617 0.00269294 335.418 
274 1 0.0425983 -0.014 0.00386091 329.17 
652 1 0.0441287 -0.014 0.00257328 317.322 
689 1 0.0463276 -0.014 0.00275222 312.837 
1184 1 0.0483371 -0.014 0.00274697 311.81 
1026 1 0.000999991 -0.0126891 0.00251021 305.851 
261 1 0.000999995 -0.011326 0.00397369 310.91 
1343 1 0.00301409 -0.0113076 0.00397475 326.759 
87 1 0.00423913 -0.0120312 0.0022356 307.051 
355 1 0.00504244 -0.0112267 0.00391614 338.444 
1208 1 0.00656471 -0.0120234 0.00253146 309.756 
22 1 0.00843274 -0.011079 0.00371936 350.786 
378 1 0.0101037 -0.0120919 0.00329275 332.783 
1220 1 0.0128444 -0.012285 0.00367402 328.447 
4 1 0.0145348 -0.0124065 0.00221646 316.064 
336 1 0.015519 -0.0118383 0.00386221 324.153 
622 1 0.0176585 -0.0122282 0.00224094 314.139 
1077 1 0.0174136 -0.0112732 0.00416425 351.934 
736 1 0.0189909 -0.012447 0.00379728 369.228 
681 1 0.0203697 -0.0122626 0.00236006 311.228 
859 1 0.022665 -0.0115618 0.00410205 363.685 
806 1 0.0239103 -0.0124121 0.00278814 341.928 
1152 1 0.0260548 -0.0120702 0.00246214 340.01 
999 1 0.0279366 -0.0119296 0.00389669 348.048 
1316 1 0.0289735 -0.011821 0.0021899 338.33 
797 1 0.029953 -0.0124734 0.00395094 344.676 
1264 1 0.0315301 -0.0122716 0.00273395 314.83 
20 1 0.0336445 -0.0118753 0.00261523 353.798 
1336 1 0.0350723 -0.0118548 0.00401562 346.294 
1126 1 0.0354465 -0.0110244 0.00213404 342.604 
233 1 0.0359508 -0.0129117 0.00256269 317.089 
450 1 0.0369507 -0.0113847 0.00340195 354.077 
160 1 0.0392319 -0.0123737 0.00369314 368.668 
724 1 0.0409925 -0.0114286 0.00230715 350.646 
876 1 0.0419024 -0.0120667 0.00396995 368.434 
872 1 0.0425493 -0.0128203 0.00223337 314.748 
704 1 0.0449215 -0.0120423 0.00276611 326.595 
945 1 0.0469145 -0.0120959 0.00292509 335.998 
221 1 0.0489219 -0.0120878 0.00278378 337.009 
1245 1 0.000999993 -0.00928449 0.00395345 316.833 
744 1 0.00199872 -0.0103191 0.00256345 315.92 
635 1 0.00390569 -0.00984746 0.00293895 330.932 
136 1 0.00590224 -0.00974057 0.00289044 339.87 
418 1 0.00782929 -0.00974667 0.00235529 341.685 
1057 1 0.0112144 -0.00913699 0.00230648 342.394 
259 1 0.0102857 -0.010154 0.00396539 384.124 
1318 1 0.0125372 -0.0106075 0.00262928 356.83 
725 1 0.0121185 -0.00937428 0.00414712 413.909 
1205 1 0.0144017 -0.00990101 0.00247217 367.185 
422 1 0.0163222 -0.0103914 0.00273907 342.872 
924 1 0.0183927 -0.0103733 0.00267041 357.735 
395 1 0.0200087 -0.0107212 0.00379621 363.659 
1195 1 0.0205045 -0.00947314 0.00231414 341.284 
500 1 0.0225748 -0.0102262 0.0026161 352.552 
213 1 0.0246572 -0.0105577 0.00272838 344.433 
909 1 0.0263344 -0.0095128 0.00242 372.461 
740 1 0.0265318 -0.0105259 0.00413308 390.837 
521 1 0.0284821 -0.00929895 0.00254496 390.581 
997 1 0.0297075 -0.0105331 0.00353251 380.677 
445 1 0.0304806 -0.00911342 0.00235493 373.416 
1261 1 0.0322714 -0.0104207 0.00289093 324.085 
529 1 0.0340991 -0.00964259 0.00265859 365.542 
277 1 0.0355513 -0.00991304 0.00402491 397.057 
124 1 0.0367214 -0.00947922 0.002462 386.211 
960 1 0.0385169 -0.0102744 0.00284128 372.584 
510 1 0.0401572 -0.0106169 0.00393302 412.908 
533 1 0.0434256 -0.0107171 0.00268929 360.986 
552 1 0.044975 -0.00945352 0.0026339 398.354 
697 1 0.0458235 -0.0106606 0.00398403 410.581 
440 1 0.0475928 -0.00981798 0.00358448 384.74 
1021 1 0.0490805 -0.0100354 0.00226562 362.377 
95 1 0.0495155 -0.0105984 0.00413479 396.185 
564 1 0.00099999 -0.00828587 0.00219099 314.227 
1178 1 0.00294431 -0.00812116 0.0026297 321.287 
1005 1 0.00493772 -0.00799531 0.00273643 354.114 
284 1 0.00642498 -0.00807971 0.00407095 378.616 
27 1 0.00807073 -0.00718883 0.00266529 379.896 
344 1 0.00938651 -0.00866083 0.00298457 372.304 
455 1 0.0105623 -0.00708018 0.00263943 387.267 
636 1 0.0124312 -0.00770239 0.00298568 383.772 
1006 1 0.0139625 -0.00858986 0.00391714 417.036 
457 1 0.0154895 -0.00790228 0.00238508 322.206 
719 1 0.0174886 -0.00898444 0.00379015 403.119 
970 1 0.0173748 -0.00710733 0.00303941 382.654 
179 1 0.019032 -0.00819104 0.00275844 389.457 
138 1 0.0218439 -0.00861733 0.00355266 404.33 
818 1 0.0203462 -0.00738063 0.00402971 446.798 
246 1 0.0236322 -0.00852863 0.00260825 354.642 
52 1 0.0251761 -0.00874884 0.00386041 403.712 
788 1 0.0270982 -0.00816529 0.00368523 410.421 
988 1 0.028116 -0.00722336 0.00224411 395.135 
490 1 0.0294674 -0.00792801 0.00361716 431.334 
84 1 0.031579 -0.00882185 0.0040007 449.388 
574 1 0.0326897 -0.00787248 0.00263506 382 
1270 1 0.0346324 -0.00763772 0.00222151 373.752 
890 1 0.0361877 -0.00783246 0.00346367 439.897 
51 1 0.0380266 -0.00798128 0.00269142 422.78 
631 1 0.0399048 -0.00892272 0.00234495 346.971 
96 1 0.0393912 -0.00787195 0.00414942 496.296 
511 1 0.0410111 -0.00732224 0.00280826 372.468 
466 1 0.041122 -0.00887299 0.00410041 493.785 
1303 1 0.0421003 -0.00893786 0.00235721 395.224 
958 1 0.0436162 -0.00824038 0.00345969 441.803 
801 1 0.0466159 -0.00823817 0.00279014 405.755 
12 1 0.0485517 -0.00783185 0.00249456 378.018 
1322 1 0.00166231 -0.00652449 0.00286836 333.679 
1341 1 0.00396419 -0.00627271 0.00244508 345.64 
558 1 0.00510905 -0.00651309 0.00406821 394.513 
1255 1 0.00617585 -0.0056989 0.0025853 363.084 
56 1 0.00920399 -0.00554256 0.00273928 401.431 
1328 1 0.0124008 -0.00589791 0.00386145 464.804 
981 1 0.0141383 -0.00669754 0.00326137 395.001 
63 1 0.016488 -0.00538171 0.00255375 403.428 
942 1 0.0197866 -0.00626282 0.00246853 418.57 
1115 1 0.0187325 -0.00616465 0.0041654 482.931 
394 1 0.0204476 -0.00512481 0.00397452 425.986 
433 1 0.0221624 -0.00664013 0.00363846 460.84 
1004 1 0.0238057 -0.00623755 0.0025719 402.264 
957 1 0.0256907 -0.00562412 0.0028533 372.486 
436 1 0.0276169 -0.00518118 0.0025475 415.932 
769 1 0.0283152 -0.00634638 0.0040305 478.14 
141 1 0.0300155 -0.00540323 0.00326521 442.277 
59 1 0.0319484 -0.00601689 0.00271977 399.812 
104 1 0.0339034 -0.00541545 0.00219479 372.256 
489 1 0.0353605 -0.00612222 0.00408883 457.715 
1166 1 0.0366481 -0.00613693 0.00250276 337.108 
58 1 0.0378524 -0.00653306 0.00405974 471.661 
593 1 0.0392466 -0.00639765 0.00263055 397.602 
897 1 0.041185 -0.00533196 0.00253628 408.657 
1 1 0.0428685 -0.00661072 0.0025736 392.654 
759 1 0.0446992 -0.00576291 0.00298167 406.234 
396 1 0.0462771 -0.0066257 0.00392378 451.506 
1234 1 0.0482705 -0.00512445 0.00266 381.94 
3839 1 0.0498275 -0.00635211 0.00292208 412.705 
539 1 0.000999991 -0.00463755 0.00284091 322.682 
502 1 0.0028692 -0.00496099 0.00348449 344.43 
1090 1 0.00241806 -0.00326162 0.00253127 334.649 
666 1 0.00465322 -0.00440221 0.00271947 353.806 
102 1 0.00755571 -0.00396157 0.00273142 396.436 
263 1 0.00952789 -0.00357948 0.00294262 430.259 
659 1 0.0111076 -0.00492458 0.00267413 374.993 
61 1 0.0132155 -0.00474062 0.00244835 398.137 
701 1 0.014857 -0.00485586 0.003585 446.714 
968 1 0.0144952 -0.00320426 0.00249262 400.799 
949 1 0.0164875 -0.00336364 0.00242094 389.336 
815 1 0.0184075 -0.00482756 0.00266398 409.511 
941 1 0.0219151 -0.00493099 0.00262965 402.615 
793 1 0.0203805 -0.00364863 0.00260586 410.724 
371 1 0.0217992 -0.00348212 0.00400576 509.506 
437 1 0.0237219 -0.00436751 0.00327611 399.851 
232 1 0.0256883 -0.00374046 0.00360621 437.3 
1053 1 0.0274331 -0.0032043 0.00278871 395.11 
1113 1 0.0294168 -0.00367225 0.0024619 428.696 
239 1 0.0285386 -0.00436099 0.00412155 509.068 
125 1 0.0313661 -0.00411936 0.00247416 395.528 
503 1 0.0305202 -0.00320882 0.00406428 497.876 
685 1 0.0338027 -0.00315327 0.00216831 361.248 
1183 1 0.0329001 -0.00455259 0.00369441 396.141 
607 1 0.0355435 -0.00451931 0.00290681 419.356 
670 1 0.0344352 -0.0033252 0.00406679 497.678 
337 1 0.0372277 -0.00348272 0.00320522 429.487 
1129 1 0.0385362 -0.00458563 0.00217014 383.379 
731 1 0.0397943 -0.0039422 0.00358553 477.023 
571 1 0.0429846 -0.00447594 0.00270542 373.28 
971 1 0.0428698 -0.00304037 0.00409671 483.326 
708 1 0.0447234 -0.00389631 0.00371446 412.629 
886 1 0.0466457 -0.00466918 0.00373368 383.24 
1181 1 0.0478672 -0.0031672 0.00257964 379.574 
7 1 0.000999995 -0.00224926 0.00351349 335.287 
194 1 0.00444504 -0.00241389 0.00266259 375.595 
824 1 0.00663811 -0.002199 0.00250483 386.323 
850 1 0.00789364 -0.0024833 0.00403545 406.834 
520 1 0.00878403 -0.00181657 0.00236061 393.685 
1122 1 0.011365 -0.00295271 0.00246086 407.48 
1071 1 0.0110248 -0.00157098 0.0038662 462.318 
1326 1 0.0128951 -0.00189142 0.00319063 423.989 
592 1 0.0149515 -0.00128289 0.00280888 418.214 
251 1 0.0169801 -0.001426 0.00247444 384.657 
702 1 0.0161354 -0.00228746 0.00406953 383.929 
1149 1 0.0180125 -0.00280077 0.00358607 454.702 
379 1 0.0189674 -0.00158635 0.00231587 386.322 
1284 1 0.0210353 -0.00176092 0.00269408 435.547 
794 1 0.0227832 -0.00284188 0.00238658 420.731 
448 1 0.0225297 -0.0013417 0.0039554 490.312 
1114 1 0.0242126 -0.00239472 0.00371208 492.549 
1335 1 0.0270199 -0.00120829 0.00282432 470.738 
687 1 0.0291767 -0.00168212 0.00229324 420.999 
753 1 0.0287052 -0.00236798 0.00411184 516.891 
628 1 0.0312942 -0.00143576 0.00223057 360.206 
937 1 0.0323336 -0.00265285 0.00342984 439.27 
637 1 0.0355118 -0.00215918 0.00284971 416.689 
998 1 0.0373732 -0.001489 0.00314284 406.285 
128 1 0.0393168 -0.00208354 0.00264561 377.635 
871 1 0.0411969 -0.00260098 0.00308983 357.311 
992 1 0.0426257 -0.00120919 0.00294356 376.591 
587 1 0.0438385 -0.00269671 0.00238109 394.813 
710 1 0.0445866 -0.00189194 0.0040522 473.171 
512 1 0.0461727 -0.00207084 0.00270327 336.741 
21 1 0.0478069 -0.00170423 0.00394202 458.095 
1170 1 0.0495766 -0.00258666 0.00344025 410.862 
822 1 0.000999987 -0.000473589 0.00259319 325.815 
109 1 0.0024542 -0.000832872 0.00391839 370.269 
528 1 0.00578114 -0.000842966 0.00394346 439.649 
242 1 0.00411277 -0.000225061 0.00285187 354.2 
144 1 0.00763281 -0.000245222 0.00300108 393.223 
1192 1 0.00914761 -0.000927255 0.00411472 444.81 
419 1 0.00945075 0.000512878 0.0026542 395.473 
412 1 0.0112445 -0.000305026 0.0023172 339.71 
1076 1 0.0126516 8.4254e-06 0.00379379 456.326 
62 1 0.0149188 0.000712616 0.0026792 422.283 
296 1 0.0169126 0.000567618 0.00261911 417.768 
1125 1 0.0179476 -0.000535511 0.00398153 446.744 
229 1 0.0189022 0.000404401 0.0024965 413.951 
1121 1 0.0207436 0.000143193 0.00323189 440.2 
1269 1 0.0233602 0.000450973 0.00361969 492.402 
182 1 0.0248598 -0.000777839 0.00272881 379.333 
438 1 0.0259157 0.000919027 0.00280466 460.306 
1194 1 0.0286065 0.000232978 0.00237905 418.845 
896 1 0.0318096 -0.000830484 0.00406577 484.515 
1030 1 0.0305119 0.000242498 0.00298658 425.655 
334 1 0.033172 -0.000725086 0.00260031 327.37 
19 1 0.0356439 -0.00022773 0.00234772 416.211 
65 1 0.0377027 0.000305464 0.00232351 394.326 
1120 1 0.0390534 -0.000489579 0.00382456 457.143 
1079 1 0.0395763 0.00096548 0.00255594 392.075 
1268 1 0.0407291 -0.00066785 0.0026123 387.255 
267 1 0.0425149 0.000767667 0.00266122 377.701 
307 1 0.0436758 2.84904e-05 0.00411238 477.259 
640 1 0.0445885 -0.000664407 0.00247324 404.096 
1235 1 0.0459945 0.00043435 0.00337651 386.77 
559 1 0.0474154 -0.000541394 0.0023621 336.274 
70 1 0.0493083 -0.000516063 0.00336394 407.261 
777 1 0.000999995 0.00110825 0.00381703 324.68 
471 1 0.000999996 0.00219067 0.00213525 317.832 
1043 1 0.00259936 0.0010612 0.00261711 344.592 
1165 1 0.0043985 0.00192522 0.00248846 364.549 
1342 1 0.00615918 0.00122393 0.00312734 385.161 
948 1 0.00824989 0.00209418 0.00238418 356.683 
73 1 0.00954494 0.00198347 0.0040064 426.594 
505 1 0.0109079 0.00187772 0.00253671 350.303 
921 1 0.0128894 0.00162969 0.00264707 355.483 
698 1 0.0148031 0.00263621 0.00214408 393.67 
542 1 0.0161275 0.00214771 0.00356089 402.876 
202 1 0.0179548 0.00149021 0.00405531 477.859 
1312 1 0.0198177 0.00190183 0.00345535 461.669 
1100 1 0.0218928 0.00199069 0.0026682 435.084 
902 1 0.024654 0.0020511 0.00386609 478.575 
715 1 0.0275718 0.00203697 0.00271739 453.821 
209 1 0.0292263 0.00157551 0.00374179 480.992 
68 1 0.030945 0.00242399 0.00317064 420.673 
189 1 0.0323332 0.0010903 0.00262827 372.387 
122 1 0.0331342 0.00221269 0.00408336 426.475 
1112 1 0.0343195 0.0011875 0.00284081 387.587 
1259 1 0.0371473 0.00244187 0.00221728 411.793 
570 1 0.0366618 0.0011466 0.00380976 472.698 
1070 1 0.0392343 0.0028996 0.00293307 364.59 