ITEM: TIMESTEP
21900000
ITEM: NUMBER OF ATOMS
5000
ITEM: BOX BOUNDS mm mm mm
0 0.1
-0.015 0.015
0 0.3
ITEM: ATOMS id type x y z f_Temp[0] 
977 1 0.00102825 -0.014 0.000999993 302.038 
581 1 0.0028054 -0.013082 0.000999998 300 
980 1 0.00536401 -0.0139934 0.000999992 304.64 
1252 1 0.00736682 -0.0139977 0.000999998 300 
648 1 0.00943464 -0.014 0.000999991 307.76 
1049 1 0.0114353 -0.0139954 0.000999998 300 
585 1 0.0133901 -0.0135649 0.000999998 300 
453 1 0.0153493 -0.0139698 0.000999997 302.603 
812 1 0.0173493 -0.0139999 0.000999993 309.535 
1111 1 0.0195007 -0.0134438 0.000999984 309.914 
713 1 0.021422 -0.014 0.000999994 307.34 
1065 1 0.0234048 -0.014 0.00126756 304.416 
82 1 0.0265155 -0.0139931 0.000999994 312.791 
383 1 0.0285156 -0.014 0.000999992 310.184 
930 1 0.030521 -0.014 0.000999997 307.267 
936 1 0.0322405 -0.014 0.00202133 313.41 
1185 1 0.0365621 -0.014 0.000999997 304.763 
961 1 0.0387276 -0.014 0.00158109 315.202 
397 1 0.0415067 -0.014 0.000999998 310.669 
434 1 0.0453634 -0.0139995 0.000999989 308.402 
845 1 0.0473634 -0.013996 0.000999993 304.771 
69 1 0.0493634 -0.014 0.000999998 300 
775 1 0.00100002 -0.0113754 0.000999998 300 
100 1 0.0029795 -0.0110896 0.000999992 306.667 
914 1 0.00557519 -0.0112015 0.00100005 311.165 
80 1 0.00757517 -0.0111953 0.000999991 314.773 
451 1 0.00998402 -0.0120769 0.000999996 317.115 
796 1 0.00840292 -0.0126653 0.00207425 309.296 
693 1 0.0116631 -0.012314 0.00206038 327.828 
1317 1 0.0131863 -0.0115688 0.000999987 322.302 
915 1 0.0160944 -0.0121103 0.000999994 313.762 
410 1 0.0190455 -0.011496 0.000999996 313.077 
830 1 0.0224371 -0.0122702 0.000999998 301.114 
320 1 0.0247898 -0.0125822 0.000999992 314.658 
112 1 0.0274126 -0.0122056 0.000999996 319.468 
75 1 0.0305709 -0.0120006 0.000999993 317.832 
44 1 0.0325472 -0.012308 0.000999993 312.294 
903 1 0.0346614 -0.0124727 0.000999987 323.497 
501 1 0.0399655 -0.0125406 0.000999994 321.261 
606 1 0.0381813 -0.0121244 0.00200969 338.741 
895 1 0.0424953 -0.0112468 0.000999991 327.733 
98 1 0.0440827 -0.0124633 0.000999998 314.535 
591 1 0.0463637 -0.0121887 0.000999998 300 
260 1 0.0483399 -0.0113954 0.000999988 325.206 
341 1 0.00236835 -0.00912792 0.000999989 308.422 
781 1 0.00434315 -0.00962605 0.00099999 314.016 
163 1 0.00630249 -0.00922482 0.000999992 318.512 
180 1 0.00969329 -0.0104144 0.00207298 349.01 
657 1 0.0113778 -0.0106424 0.000999994 317.926 
479 1 0.0130888 -0.00957115 0.00099999 327.095 
1334 1 0.0156328 -0.00933789 0.000999989 334.969 
236 1 0.0173021 -0.0105161 0.00100003 330.733 
463 1 0.0189969 -0.0094543 0.000999987 334.624 
1058 1 0.020961 -0.0109208 0.000999997 311.111 
214 1 0.021988 -0.00920459 0.000999991 334.833 
48 1 0.0236592 -0.010687 0.000999996 325.474 
1001 1 0.0256579 -0.0107646 0.000999989 321.9 
157 1 0.0275721 -0.0101849 0.00099999 340.863 
154 1 0.0295703 -0.010269 0.000999998 338.287 
849 1 0.0316898 -0.0101272 0.000999998 307.053 
986 1 0.0337356 -0.0106994 0.000999992 329.78 
352 1 0.0353603 -0.00937906 0.000999998 339.916 
391 1 0.037078 -0.0107965 0.00099999 336.317 
828 1 0.0380495 -0.00904828 0.000999991 349.392 
1302 1 0.0391669 -0.010707 0.000999988 333.556 
1153 1 0.0410033 -0.00991491 0.000999992 340.499 
1029 1 0.0435086 -0.00935559 0.000999995 334.683 
734 1 0.0450013 -0.0106867 0.000999997 319.644 
168 1 0.0467898 -0.0104128 0.001852 339.3 
673 1 0.0479253 -0.00900397 0.000999991 337.755 
230 1 0.00208414 -0.00710001 0.000999993 317.041 
962 1 0.00400567 -0.00765473 0.000999989 324.137 
829 1 0.00807393 -0.0082964 0.000999989 332.521 
409 1 0.0100683 -0.00814704 0.00100015 330.41 
524 1 0.0120481 -0.00786324 0.000999994 325.02 
1221 1 0.0140493 -0.00781583 0.000999998 306.084 
1092 1 0.0173393 -0.0086903 0.00181755 360.551 
461 1 0.016624 -0.00701102 0.000999992 333.625 
1062 1 0.0197951 -0.00762048 0.000999986 354.993 
790 1 0.0215614 -0.00748521 0.00192831 382.728 
200 1 0.0233297 -0.00737885 0.000999993 354.346 
602 1 0.0247258 -0.00899514 0.000999997 322.262 
546 1 0.0254076 -0.0074302 0.00204216 332.121 
1240 1 0.0269157 -0.00822994 0.000999998 312.58 
247 1 0.0292594 -0.00829331 0.00099999 353.881 
973 1 0.0315646 -0.00811889 0.00099999 341.647 
1319 1 0.0334732 -0.00871669 0.000999992 342.473 
947 1 0.0365133 -0.00779137 0.00138712 324.874 
238 1 0.0398083 -0.00744564 0.000999998 333.093 
162 1 0.0418495 -0.00748741 0.000999997 322.596 
367 1 0.0444121 -0.00769988 0.0016651 338.997 
1274 1 0.0459344 -0.00881346 0.000999986 350.655 
1074 1 0.0498522 -0.00837842 0.000999998 300 
28 1 0.0010002 -0.00541922 0.000999994 309.946 
956 1 0.00299513 -0.00525883 0.000999998 300 
134 1 0.00500411 -0.00536152 0.000999994 332.899 
825 1 0.00684751 -0.00671657 0.000999995 330.412 
976 1 0.00894151 -0.00649438 0.000999994 342.805 
169 1 0.0109715 -0.00601028 0.000999993 343.759 
556 1 0.0129962 -0.00610228 0.000999995 344.249 
421 1 0.0149261 -0.00609382 0.001525 350.876 
1217 1 0.0184323 -0.00615665 0.000999998 338.76 
1325 1 0.0210612 -0.00573812 0.000999998 300 
496 1 0.0230199 -0.00528279 0.000999996 360.624 
639 1 0.024956 -0.005784 0.00099999 356.604 
1151 1 0.0269057 -0.0062297 0.000999984 356.234 
443 1 0.0289777 -0.00543899 0.000999998 300 
1231 1 0.0310305 -0.00545213 0.000999998 300 
146 1 0.0303193 -0.00698151 0.00207498 387.675 
1290 1 0.0330366 -0.00676492 0.000999997 333.324 
1075 1 0.0353259 -0.00621403 0.000999995 332.333 
618 1 0.038025 -0.00654034 0.000999998 311.569 
83 1 0.0399098 -0.00544822 0.000999985 357.97 
974 1 0.0424605 -0.00544572 0.000999991 354.286 
1289 1 0.0449382 -0.00588859 0.000999992 346.703 
772 1 0.0466402 -0.00609637 0.0020296 377.588 
530 1 0.0482999 -0.00652692 0.000999994 340.538 
283 1 0.00371048 -0.0033874 0.000999998 300 
750 1 0.00569453 -0.00311851 0.000999998 300.003 
234 1 0.00689912 -0.00471724 0.000999994 343.555 
1025 1 0.00808697 -0.00310811 0.000999998 300 
139 1 0.00957578 -0.00451691 0.000999998 300 
791 1 0.0119528 -0.0041857 0.000999985 359.096 
402 1 0.0153626 -0.004214 0.000999994 345.583 
1087 1 0.017357 -0.00447035 0.000999991 355.409 
519 1 0.0193899 -0.00431182 0.000999993 361.33 
275 1 0.0216938 -0.00378558 0.000999994 345.093 
142 1 0.0249492 -0.00393316 0.00175782 380.778 
90 1 0.0267754 -0.00423396 0.000999996 349.906 
492 1 0.032699 -0.00434362 0.000999993 341.857 
749 1 0.0350091 -0.00423928 0.000999994 346.567 
1187 1 0.0369358 -0.00484893 0.000999997 326.453 
175 1 0.0402006 -0.00358298 0.00166048 375.423 
1050 1 0.0420853 -0.00347573 0.000999995 334.464 
846 1 0.0439728 -0.00413701 0.000999988 347.128 
424 1 0.0456873 -0.00431841 0.00201368 360.135 
1243 1 0.0474114 -0.00430605 0.000999998 339.089 
3721 1 0.0493439 -0.00482097 0.000999988 334.538 
77 1 0.00106541 -0.002082 0.000999998 300 
37 1 0.00269634 -0.00135299 0.00200246 341.319 
1108 1 0.00442621 -0.00130241 0.000999983 339.609 
385 1 0.0074663 -0.0011745 0.000999988 346.677 
89 1 0.0100507 -0.00255573 0.000999998 300 
318 1 0.0118586 -0.00167902 0.000999998 330.568 
32 1 0.0138228 -0.00205531 0.000999998 327.408 
964 1 0.0158217 -0.00212183 0.000999998 322.401 
1180 1 0.0177825 -0.00251614 0.000999993 341.729 
885 1 0.0201852 -0.00247261 0.000999997 349.296 
264 1 0.0220832 -0.00158202 0.000999986 371.831 
258 1 0.0241116 -0.00228266 0.001 384.824 
291 1 0.0258098 -0.00110755 0.000999998 334.948 
1052 1 0.0282802 -0.00291658 0.000999992 370.191 
486 1 0.0304223 -0.00274938 0.000999993 354.278 
401 1 0.0328101 -0.00186878 0.000999996 331.136 
91 1 0.0348112 -0.00186302 0.00099999 345.633 
1248 1 0.0364864 -0.00291987 0.00127711 335.919 
1196 1 0.0384654 -0.00283657 0.000999995 332.537 
351 1 0.0409167 -0.00183629 0.000999995 342.863 
1003 1 0.0429074 -0.00158964 0.000999997 332.631 
545 1 0.0452833 -0.00262575 0.000999997 339.768 
31 1 0.0472197 -0.00212533 0.000999991 331.825 
1027 1 0.0491105 -0.00283465 0.000999996 313.865 
620 1 0.00150677 0.000624044 0.000999984 319.667 
817 1 0.00370947 0.000569684 0.000999998 300 
127 1 0.00591125 -0.000406584 0.00199601 374.907 
306 1 0.00756563 0.000823028 0.000999994 327.311 
167 1 0.00960301 -0.000600847 0.000999992 350.622 
721 1 0.0132144 -0.000384327 0.00191523 398.505 
33 1 0.0157877 -0.000111145 0.000999998 300 
522 1 0.0178047 -0.000352333 0.000999998 300 
1330 1 0.0201725 -0.000472033 0.000999998 300 
624 1 0.0239822 -0.000286865 0.000999988 367.973 
799 1 0.0222849 0.000162791 0.00195755 406.922 
644 1 0.0278053 -0.000973797 0.000999988 374.579 
181 1 0.0267602 0.000746026 0.000999994 367.531 
289 1 0.0300684 -0.000444246 0.000999989 356.782 
899 1 0.0320249 -2.93762e-05 0.000999997 328.04 
184 1 0.0341146 1.68648e-05 0.000999998 306.533 
1191 1 0.0369447 -0.000988277 0.000999998 314.277 
625 1 0.0395934 -0.000291008 0.000999998 323.538 
250 1 0.0417007 7.81934e-06 0.000999996 340.251 
1247 1 0.0440457 0.000574481 0.000999991 342.682 
518 1 0.045939 -0.000588995 0.000999992 347.615 
198 1 0.0476838 0.000898667 0.000999998 300 
527 1 0.0488465 -0.000852146 0.000999995 320.473 
904 1 0.0494914 0.00083641 0.00185608 351.603 
305 1 0.00264916 0.00226565 0.00100002 326.002 
408 1 0.00557638 0.00129512 0.000999993 344.802 
1037 1 0.00643218 0.00282586 0.00196146 366.61 
1054 1 0.00968458 0.00225442 0.000999996 327.356 
310 1 0.0118963 0.0010515 0.000999998 310.939 
364 1 0.0129022 0.00293552 0.000999998 318.385 
392 1 0.0139525 0.00123354 0.000999991 351.741 
430 1 0.0169059 0.00174167 0.000999993 354.06 
723 1 0.0189958 0.0017279 0.000999992 347.735 
279 1 0.0209923 0.00135248 0.000999998 300 
1099 1 0.0248586 0.00295496 0.000999993 361.523 
1044 1 0.0241312 0.00141222 0.00204443 417.056 
1226 1 0.0268526 0.0027672 0.000999989 381.084 
474 1 0.0285332 0.00167963 0.000999992 358.169 
1175 1 0.0304799 0.00146998 0.0014079 372.842 
280 1 0.033244 0.0018183 0.000999998 315.838 
476 1 0.0350733 0.0024588 0.0014934 355.687 
735 1 0.0363974 0.00104339 0.000999985 365.602 
311 1 0.0384834 0.00158561 0.000999987 364.137 
562 1 0.0405308 0.00178272 0.000999989 351.669 
197 1 0.0425283 0.0018813 0.000999995 332.514 
615 1 0.0443907 0.00261031 0.000999986 346.969 
568 1 0.0458138 0.00132471 0.00156747 377.046 
1197 1 0.0497082 0.00263088 0.000999994 345.991 
366 1 0.00100063 0.00383724 0.000999997 306.324 
920 1 0.0043839 0.00326097 0.00099999 327.459 
1036 1 0.00644525 0.00457953 0.000999989 328.361 
314 1 0.00844595 0.00420067 0.000999998 300 
1224 1 0.0104826 0.00408961 0.000999992 338.004 
1124 1 0.0123036 0.0049164 0.000999992 345.489 
1286 1 0.0152051 0.00422662 0.000999983 356.201 
972 1 0.0186014 0.00369399 0.000999996 329.177 
493 1 0.0202753 0.0030119 0.00185588 398.924 
939 1 0.02075 0.00475605 0.000999988 367.459 
923 1 0.0220823 0.00307749 0.000999993 357.011 
241 1 0.0235323 0.00445514 0.00099999 369.968 
322 1 0.0254857 0.00479463 0.00147149 377.37 
485 1 0.0274261 0.00468323 0.000999995 355.571 
814 1 0.0294225 0.00456453 0.000999989 363.001 
1229 1 0.031651 0.00303909 0.000999991 356.872 
879 1 0.0329341 0.00472717 0.000999998 300 
1019 1 0.0354244 0.00436559 0.000999992 347.798 
26 1 0.0374497 0.00408388 0.000999998 300 
946 1 0.0393305 0.00340354 0.000999998 318.101 
1314 1 0.041438 0.0035651 0.000999997 336.738 
300 1 0.0429164 0.00497018 0.000999991 342.808 
757 1 0.0450353 0.00455744 0.000999996 331.387 
121 1 0.0464429 0.00313648 0.000999998 300 
2899 1 0.0491937 0.0045982 0.000999981 351.422 
235 1 0.0481355 0.00327053 0.00205706 384.44 
852 1 0.00147344 0.00578054 0.000999994 304.443 
143 1 0.00359123 0.00509717 0.000999997 320.724 
712 1 0.00611097 0.00655139 0.000999995 319.932 
857 1 0.00765647 0.00583318 0.0020467 339.266 
156 1 0.0101026 0.00606707 0.000999991 334.372 
733 1 0.0125017 0.00690655 0.000999988 343.161 
761 1 0.0142907 0.00601079 0.000999998 300 
1306 1 0.0170989 0.00501409 0.000999991 339.295 
1285 1 0.0165013 0.00696606 0.000999998 310.274 
237 1 0.0189814 0.0056897 0.000999997 335.754 
621 1 0.0222928 0.00602882 0.00099999 352.088 
1134 1 0.0242725 0.00631312 0.000999989 357.274 
1154 1 0.028986 0.0067722 0.000999991 359.119 
332 1 0.0310772 0.00569306 0.000999998 300 
404 1 0.0326452 0.00696578 0.000999994 341.666 
1299 1 0.0344553 0.0061151 0.000999994 340.48 
1088 1 0.0366774 0.00592881 0.000999988 370.915 
54 1 0.0390828 0.00538836 0.000999994 337.507 
176 1 0.0410339 0.00582837 0.000999992 335.304 
544 1 0.0455142 0.00651503 0.000999998 300 
469 1 0.0472716 0.00515104 0.000999995 327.413 
14 1 0.0486979 0.00655309 0.000999996 333.13 
741 1 0.000999996 0.00772368 0.00100003 304.166 
187 1 0.00278473 0.00862649 0.000999991 308.2 
540 1 0.00401709 0.00705129 0.000999987 315.04 
193 1 0.00477787 0.00895687 0.000999998 300 
253 1 0.0068207 0.00842122 0.000999996 315.145 
959 1 0.00850773 0.00730957 0.000999992 323.747 
328 1 0.0114071 0.00884969 0.000999998 300 
718 1 0.0132987 0.00844915 0.0019926 345.98 
978 1 0.0151909 0.00848408 0.000999991 336.604 
488 1 0.0171399 0.00893312 0.000999991 332.368 
847 1 0.0186891 0.00766823 0.000999992 339.025 
473 1 0.0206948 0.0074012 0.000999998 300 
854 1 0.0226507 0.00799697 0.000999991 358.524 
207 1 0.026375 0.00739616 0.000999998 300.124 
513 1 0.0293352 0.00896057 0.00151575 335.664 
651 1 0.0307733 0.00766986 0.000999989 342.359 
1298 1 0.0326488 0.00875108 0.00190147 338.2 
1244 1 0.0353883 0.00770327 0.00177925 376.839 
611 1 0.0372176 0.00791835 0.000999986 345.572 
730 1 0.0393603 0.00754604 0.000999997 332.124 
835 1 0.0417267 0.00744182 0.00195747 382.22 
110 1 0.0436805 0.00766014 0.000999996 330.667 
428 1 0.0469194 0.00795518 0.000999997 307.613 
174 1 0.0497579 0.00825521 0.000999987 343.574 
205 1 0.00100021 0.00991911 0.000999985 302.871 
177 1 0.00272024 0.0104073 0.001908 305.672 
674 1 0.00638342 0.0103728 0.000999989 311.173 
79 1 0.00942032 0.00908922 0.000999998 319.701 
1320 1 0.0104938 0.0103921 0.00207241 329.772 
779 1 0.012119 0.0108494 0.00100017 321.54 
292 1 0.0139551 0.0100566 0.000999991 327.557 
11 1 0.015904 0.0105056 0.00099999 325.621 
50 1 0.0188973 0.00950435 0.00176508 326.051 
1042 1 0.0207436 0.0094288 0.000999998 307.685 
694 1 0.0226224 0.0101149 0.000999989 339.902 
147 1 0.0240051 0.00907428 0.00200252 376.231 
983 1 0.0256274 0.00967679 0.000999989 337.626 
798 1 0.0278229 0.0101635 0.000999996 315.74 
966 1 0.0311269 0.00968438 0.000999995 321.052 
1186 1 0.033815 0.0102344 0.000999995 327.232 
1091 1 0.035782 0.00950263 0.000999993 341.354 
93 1 0.0382867 0.00960858 0.000999998 333.936 
1160 1 0.0399631 0.0106994 0.000999988 317.397 
575 1 0.0411762 0.00910919 0.00099999 335.632 
985 1 0.04312 0.00957997 0.000999996 317.931 
359 1 0.0453271 0.00941899 0.000999995 324.611 
969 1 0.0472618 0.00992566 0.000999998 310.787 
78 1 0.0492059 0.0103951 0.000999992 311.172 
363 1 0.000999994 0.0125472 0.000999995 300.769 
811 1 0.00296408 0.0122886 0.00127469 302.687 
743 1 0.00449491 0.0110312 0.000999993 304.314 
1251 1 0.00600936 0.0123375 0.000999995 303.728 
72 1 0.009055 0.0112752 0.000999994 311.134 
1313 1 0.0110293 0.0125265 0.00099999 310.157 
654 1 0.0139151 0.0120596 0.000999989 318.944 
271 1 0.0178307 0.0110466 0.000999998 300 
15 1 0.0191506 0.0123316 0.00178965 319.171 
215 1 0.0208644 0.0116686 0.00099999 320.512 
420 1 0.0226323 0.0118976 0.00190669 328.301 
449 1 0.0244554 0.012149 0.000999998 310.249 
39 1 0.0263672 0.0115349 0.000999992 317.944 
188 1 0.0295985 0.0111181 0.000999991 326.284 
425 1 0.028129 0.0124814 0.000999992 308.681 
1095 1 0.0312193 0.01229 0.000999998 300 
1227 1 0.033219 0.0122468 0.000999995 314.197 
119 1 0.035345 0.012292 0.000999998 300 
650 1 0.0369685 0.0111127 0.000999989 326.919 
1138 1 0.0386186 0.0122428 0.000999992 318.356 
979 1 0.0405124 0.0124274 0.00184388 326.417 
316 1 0.0424181 0.0117033 0.000999998 305.879 
1297 1 0.0443447 0.0111611 0.00099999 321.211 
1206 1 0.046545 0.0118446 0.000999993 315.353 
380 1 0.0484365 0.0121497 0.00157368 307.361 
347 1 0.00209295 0.014 0.00183359 300.757 
309 1 0.00396196 0.014 0.000999998 301.08 
1130 1 0.00566062 0.014 0.00205571 302.928 
807 1 0.00735927 0.014 0.000999991 302.266 
114 1 0.00931258 0.0135525 0.000999993 304.126 
240 1 0.0123816 0.014 0.000999997 304.788 
672 1 0.0144052 0.014 0.000999998 303.52 
729 1 0.0161846 0.014 0.00191321 312.53 
758 1 0.0179409 0.0137147 0.000999996 308.561 
1038 1 0.0199206 0.014 0.000999993 307.657 
81 1 0.0217812 0.0139926 0.00173331 314.055 
676 1 0.0236419 0.0139761 0.000999994 307.519 
534 1 0.0264763 0.0137812 0.000999998 300 
526 1 0.0299137 0.014 0.000999997 303.016 
101 1 0.0322566 0.014 0.000999994 307.954 
1304 1 0.0342566 0.014 0.00099999 309.74 
1171 1 0.0370575 0.0139149 0.000999998 300 
442 1 0.0396097 0.014 0.000999989 313.253 
348 1 0.0423169 0.0137136 0.000999998 300 
626 1 0.0443208 0.014 0.000999994 304.939 
935 1 0.0466464 0.0139509 0.000999998 300 
766 1 0.0489339 0.014 0.000999995 304.453 
728 1 0.00392052 -0.014 0.00238429 305.818 
1249 1 0.00256444 -0.0132265 0.00363435 313.607 
929 1 0.00450257 -0.0131416 0.00412055 323.761 
1137 1 0.00634469 -0.014 0.00274303 311.298 
1097 1 0.0078871 -0.0133954 0.0038635 331.194 
598 1 0.0095839 -0.014 0.0029944 320.153 
1056 1 0.0115791 -0.014 0.0031329 321.765 
747 1 0.0135702 -0.014 0.00294461 313.033 
1337 1 0.0162623 -0.0135725 0.00273454 308.16 
789 1 0.0184969 -0.014 0.00263796 322.794 
894 1 0.0203583 -0.014 0.00336963 324.415 
507 1 0.0220847 -0.0132262 0.00272104 322.887 
170 1 0.0250702 -0.014 0.00238244 315.521 
993 1 0.0240141 -0.0139722 0.00408059 340.045 
1048 1 0.0275175 -0.0134232 0.00263438 328.064 
1267 1 0.0262053 -0.014 0.00402915 312.284 
43 1 0.0295 -0.014 0.00274091 319.171 
1169 1 0.0312288 -0.014 0.00374657 338.168 
1008 1 0.0331407 -0.0134146 0.0037886 328.776 
1168 1 0.0342309 -0.014 0.00221734 316.789 
288 1 0.0350354 -0.014 0.00404837 327.82 
158 1 0.0375146 -0.014 0.00317125 308.861 
47 1 0.0406544 -0.0133617 0.00269294 335.824 
274 1 0.0425983 -0.014 0.00386091 329.502 
652 1 0.0441287 -0.014 0.00257328 317.569 
689 1 0.0463276 -0.014 0.00275222 313.125 
1184 1 0.0483371 -0.014 0.00274697 312.068 
1026 1 0.000999991 -0.0126891 0.00251021 305.892 
261 1 0.000999995 -0.011326 0.00397369 310.96 
1343 1 0.00301409 -0.0113076 0.00397475 326.871 
87 1 0.00423913 -0.0120312 0.0022356 307.13 
355 1 0.00504244 -0.0112267 0.00391614 338.631 
1208 1 0.00656471 -0.0120234 0.00253146 309.858 
22 1 0.00843274 -0.011079 0.00371936 351.012 
378 1 0.0101037 -0.0120919 0.00329275 332.995 
1220 1 0.0128444 -0.012285 0.00367402 328.659 
4 1 0.0145348 -0.0124065 0.00221646 316.189 
336 1 0.015519 -0.0118383 0.00386221 324.393 
622 1 0.0176585 -0.0122282 0.00224094 314.247 
1077 1 0.0174136 -0.0112732 0.00416425 352.23 
736 1 0.0189909 -0.012447 0.00379728 369.349 
681 1 0.0203697 -0.0122626 0.00236006 311.351 
859 1 0.022665 -0.0115618 0.00410205 363.915 
806 1 0.0239103 -0.0124121 0.00278814 342.148 
1152 1 0.0260548 -0.0120702 0.00246214 340.213 
999 1 0.0279366 -0.0119296 0.00389669 348.433 
1316 1 0.0289735 -0.011821 0.0021899 338.649 
797 1 0.029953 -0.0124734 0.00395094 345.05 
1264 1 0.0315301 -0.0122716 0.00273395 315.058 
20 1 0.0336445 -0.0118753 0.00261523 354.127 
1336 1 0.0350723 -0.0118548 0.00401562 346.806 
1126 1 0.0354465 -0.0110244 0.00213404 342.979 
233 1 0.0359508 -0.0129117 0.00256269 317.393 
450 1 0.0369507 -0.0113847 0.00340195 354.556 
160 1 0.0392319 -0.0123737 0.00369314 369.057 
724 1 0.0409925 -0.0114286 0.00230715 351.05 
876 1 0.0419024 -0.0120667 0.00396995 369.053 
872 1 0.0425493 -0.0128203 0.00223337 315.049 
704 1 0.0449215 -0.0120423 0.00276611 327.194 
945 1 0.0469145 -0.0120959 0.00292509 336.58 
221 1 0.0489219 -0.0120878 0.00278378 337.515 
1245 1 0.000999993 -0.00928449 0.00395345 316.882 
744 1 0.00199872 -0.0103191 0.00256345 315.995 
635 1 0.00390569 -0.00984746 0.00293895 331.051 
136 1 0.00590224 -0.00974057 0.00289044 340.047 
418 1 0.00782929 -0.00974667 0.00235529 341.88 
1057 1 0.0112144 -0.00913699 0.00230648 342.652 
259 1 0.0102857 -0.010154 0.00396539 384.397 
1318 1 0.0125372 -0.0106075 0.00262928 356.966 
725 1 0.0121185 -0.00937428 0.00414712 413.989 
1205 1 0.0144017 -0.00990101 0.00247217 367.311 
422 1 0.0163222 -0.0103914 0.00273907 343.1 
924 1 0.0183927 -0.0103733 0.00267041 358.012 
395 1 0.0200087 -0.0107212 0.00379621 363.983 
1195 1 0.0205045 -0.00947314 0.00231414 341.573 
500 1 0.0225748 -0.0102262 0.0026161 352.801 
213 1 0.0246572 -0.0105577 0.00272838 344.763 
909 1 0.0263344 -0.0095128 0.00242 372.809 
740 1 0.0265318 -0.0105259 0.00413308 391.19 
521 1 0.0284821 -0.00929895 0.00254496 391.021 
997 1 0.0297075 -0.0105331 0.00353251 381.081 
445 1 0.0304806 -0.00911342 0.00235493 373.742 
1261 1 0.0322714 -0.0104207 0.00289093 324.37 
529 1 0.0340991 -0.00964259 0.00265859 365.87 
277 1 0.0355513 -0.00991304 0.00402491 397.622 
124 1 0.0367214 -0.00947922 0.002462 386.685 
960 1 0.0385169 -0.0102744 0.00284128 372.991 
510 1 0.0401572 -0.0106169 0.00393302 413.171 
533 1 0.0434256 -0.0107171 0.00268929 361.688 
552 1 0.044975 -0.00945352 0.0026339 398.986 
697 1 0.0458235 -0.0106606 0.00398403 411.199 
440 1 0.0475928 -0.00981798 0.00358448 385.584 
1021 1 0.0490805 -0.0100354 0.00226562 363.149 
95 1 0.0495155 -0.0105984 0.00413479 397.179 
564 1 0.00099999 -0.00828587 0.00219099 314.275 
1178 1 0.00294431 -0.00812116 0.0026297 321.406 
1005 1 0.00493772 -0.00799531 0.00273643 354.218 
284 1 0.00642498 -0.00807971 0.00407095 378.801 
27 1 0.00807073 -0.00718883 0.00266529 380.025 
344 1 0.00938651 -0.00866083 0.00298457 372.555 
455 1 0.0105623 -0.00708018 0.00263943 387.465 
636 1 0.0124312 -0.00770239 0.00298568 384.051 
1006 1 0.0139625 -0.00858986 0.00391714 417.194 
457 1 0.0154895 -0.00790228 0.00238508 322.384 
719 1 0.0174886 -0.00898444 0.00379015 403.339 
970 1 0.0173748 -0.00710733 0.00303941 383.036 
179 1 0.019032 -0.00819104 0.00275844 389.708 
138 1 0.0218439 -0.00861733 0.00355266 404.543 
818 1 0.0203462 -0.00738063 0.00402971 446.896 
246 1 0.0236322 -0.00852863 0.00260825 354.926 
52 1 0.0251761 -0.00874884 0.00386041 403.978 
788 1 0.0270982 -0.00816529 0.00368523 410.799 
988 1 0.028116 -0.00722336 0.00224411 395.445 
490 1 0.0294674 -0.00792801 0.00361716 431.899 
84 1 0.031579 -0.00882185 0.0040007 449.659 
574 1 0.0326897 -0.00787248 0.00263506 382.585 
1270 1 0.0346324 -0.00763772 0.00222151 374.254 
890 1 0.0361877 -0.00783246 0.00346367 440.382 
51 1 0.0380266 -0.00798128 0.00269142 423.304 
631 1 0.0399048 -0.00892272 0.00234495 347.458 
96 1 0.0393912 -0.00787195 0.00414942 496.583 
511 1 0.0410111 -0.00732224 0.00280826 373.197 
466 1 0.041122 -0.00887299 0.00410041 493.94 
1303 1 0.0421003 -0.00893786 0.00235721 395.684 
958 1 0.0436162 -0.00824038 0.00345969 442.252 
801 1 0.0466159 -0.00823817 0.00279014 406.541 
12 1 0.0485517 -0.00783185 0.00249456 378.91 
1322 1 0.00166231 -0.00652449 0.00286836 333.723 
1341 1 0.00396419 -0.00627271 0.00244508 345.756 
558 1 0.00510905 -0.00651309 0.00406821 394.451 
1255 1 0.00617585 -0.0056989 0.0025853 363.169 
56 1 0.00920399 -0.00554256 0.00273928 401.52 
1328 1 0.0124008 -0.00589791 0.00386145 464.802 
981 1 0.0141383 -0.00669754 0.00326137 395.253 
63 1 0.016488 -0.00538171 0.00255375 403.768 
942 1 0.0197866 -0.00626282 0.00246853 418.844 
1115 1 0.0187325 -0.00616465 0.0041654 483.109 
394 1 0.0204476 -0.00512481 0.00397452 426.478 
433 1 0.0221624 -0.00664013 0.00363846 460.843 
1004 1 0.0238057 -0.00623755 0.0025719 402.445 
957 1 0.0256907 -0.00562412 0.0028533 372.935 
436 1 0.0276169 -0.00518118 0.0025475 416.265 
769 1 0.0283152 -0.00634638 0.0040305 478.359 
141 1 0.0300155 -0.00540323 0.00326521 442.871 
59 1 0.0319484 -0.00601689 0.00271977 400.562 
104 1 0.0339034 -0.00541545 0.00219479 373.07 
489 1 0.0353605 -0.00612222 0.00408883 458.381 
1166 1 0.0366481 -0.00613693 0.00250276 337.684 
58 1 0.0378524 -0.00653306 0.00405974 472.341 
593 1 0.0392466 -0.00639765 0.00263055 398.274 
897 1 0.041185 -0.00533196 0.00253628 409.183 
1 1 0.0428685 -0.00661072 0.0025736 393.358 
759 1 0.0446992 -0.00576291 0.00298167 406.97 
396 1 0.0462771 -0.0066257 0.00392378 452.076 
1234 1 0.0482705 -0.00512445 0.00266 383.008 
3839 1 0.0498275 -0.00635211 0.00292208 413.774 
539 1 0.000999991 -0.00463755 0.00284091 322.721 
502 1 0.0028692 -0.00496099 0.00348449 344.616 
1090 1 0.00241806 -0.00326162 0.00253127 334.77 
666 1 0.00465322 -0.00440221 0.00271947 354.045 
102 1 0.00755571 -0.00396157 0.00273142 396.647 
263 1 0.00952789 -0.00357948 0.00294262 430.341 
659 1 0.0111076 -0.00492458 0.00267413 375.441 
61 1 0.0132155 -0.00474062 0.00244835 398.344 
701 1 0.014857 -0.00485586 0.003585 446.936 
968 1 0.0144952 -0.00320426 0.00249262 401.148 
949 1 0.0164875 -0.00336364 0.00242094 389.805 
815 1 0.0184075 -0.00482756 0.00266398 409.818 
941 1 0.0219151 -0.00493099 0.00262965 403.012 
793 1 0.0203805 -0.00364863 0.00260586 411.109 
371 1 0.0217992 -0.00348212 0.00400576 509.536 
437 1 0.0237219 -0.00436751 0.00327611 400.312 
232 1 0.0256883 -0.00374046 0.00360621 437.878 
1053 1 0.0274331 -0.0032043 0.00278871 395.731 
1113 1 0.0294168 -0.00367225 0.0024619 429.134 
239 1 0.0285386 -0.00436099 0.00412155 509.171 
125 1 0.0313661 -0.00411936 0.00247416 396.21 
503 1 0.0305202 -0.00320882 0.00406428 498.395 
685 1 0.0338027 -0.00315327 0.00216831 361.789 
1183 1 0.0329001 -0.00455259 0.00369441 397.079 
607 1 0.0355435 -0.00451931 0.00290681 420.105 
670 1 0.0344352 -0.0033252 0.00406679 498.096 
337 1 0.0372277 -0.00348272 0.00320522 430.349 
1129 1 0.0385362 -0.00458563 0.00217014 384.137 
731 1 0.0397943 -0.0039422 0.00358553 477.578 
571 1 0.0429846 -0.00447594 0.00270542 374.04 
971 1 0.0428698 -0.00304037 0.00409671 484.002 
708 1 0.0447234 -0.00389631 0.00371446 413.799 
886 1 0.0466457 -0.00466918 0.00373368 384.451 
1181 1 0.0478672 -0.0031672 0.00257964 380.665 
7 1 0.000999995 -0.00224926 0.00351349 335.254 
194 1 0.00444504 -0.00241389 0.00266259 375.696 
824 1 0.00663811 -0.002199 0.00250483 386.627 
850 1 0.00789364 -0.0024833 0.00403545 407.206 
520 1 0.00878403 -0.00181657 0.00236061 393.84 
1122 1 0.011365 -0.00295271 0.00246086 407.757 
1071 1 0.0110248 -0.00157098 0.0038662 462.525 
1326 1 0.0128951 -0.00189142 0.00319063 424.37 
592 1 0.0149515 -0.00128289 0.00280888 418.726 
251 1 0.0169801 -0.001426 0.00247444 385.255 
702 1 0.0161354 -0.00228746 0.00406953 384.687 
1149 1 0.0180125 -0.00280077 0.00358607 455.005 
379 1 0.0189674 -0.00158635 0.00231587 386.681 
1284 1 0.0210353 -0.00176092 0.00269408 435.953 
794 1 0.0227832 -0.00284188 0.00238658 421.023 
448 1 0.0225297 -0.0013417 0.0039554 490.694 
1114 1 0.0242126 -0.00239472 0.00371208 492.778 
1335 1 0.0270199 -0.00120829 0.00282432 470.906 
687 1 0.0291767 -0.00168212 0.00229324 421.314 
753 1 0.0287052 -0.00236798 0.00411184 517.055 
628 1 0.0312942 -0.00143576 0.00223057 360.682 
937 1 0.0323336 -0.00265285 0.00342984 439.959 
637 1 0.0355118 -0.00215918 0.00284971 417.302 
998 1 0.0373732 -0.001489 0.00314284 407.208 
128 1 0.0393168 -0.00208354 0.00264561 378.421 
871 1 0.0411969 -0.00260098 0.00308983 358.315 
992 1 0.0426257 -0.00120919 0.00294356 377.591 
587 1 0.0438385 -0.00269671 0.00238109 395.566 
710 1 0.0445866 -0.00189194 0.0040522 473.8 
512 1 0.0461727 -0.00207084 0.00270327 337.625 
21 1 0.0478069 -0.00170423 0.00394202 459.446 
1170 1 0.0495766 -0.00258666 0.00344025 412.022 
822 1 0.000999987 -0.000473589 0.00259319 325.838 
109 1 0.0024542 -0.000832872 0.00391839 370.192 
528 1 0.00578114 -0.000842966 0.00394346 439.381 
242 1 0.00411277 -0.000225061 0.00285187 354.351 
144 1 0.00763281 -0.000245222 0.00300108 393.483 
1192 1 0.00914761 -0.000927255 0.00411472 444.974 
419 1 0.00945075 0.000512878 0.0026542 395.765 
412 1 0.0112445 -0.000305026 0.0023172 340.013 
1076 1 0.0126516 8.4254e-06 0.00379379 456.777 
62 1 0.0149188 0.000712616 0.0026792 422.763 
296 1 0.0169126 0.000567618 0.00261911 418.249 
1125 1 0.0179476 -0.000535511 0.00398153 447.274 
229 1 0.0189022 0.000404401 0.0024965 414.396 
1121 1 0.0207436 0.000143193 0.00323189 440.696 
1269 1 0.0233602 0.000450973 0.00361969 492.657 
182 1 0.0248598 -0.000777839 0.00272881 379.804 
438 1 0.0259157 0.000919027 0.00280466 460.576 
1194 1 0.0286065 0.000232978 0.00237905 419.211 
896 1 0.0318096 -0.000830484 0.00406577 485.065 
1030 1 0.0305119 0.000242498 0.00298658 426.215 
334 1 0.033172 -0.000725086 0.00260031 327.844 
19 1 0.0356439 -0.00022773 0.00234772 416.843 
65 1 0.0377027 0.000305464 0.00232351 395.126 
1120 1 0.0390534 -0.000489579 0.00382456 457.952 
1079 1 0.0395763 0.00096548 0.00255594 392.907 
1268 1 0.0407291 -0.00066785 0.0026123 388.138 
267 1 0.0425149 0.000767667 0.00266122 378.666 
307 1 0.0436758 2.84905e-05 0.00411238 477.814 
640 1 0.0445885 -0.000664407 0.00247324 404.775 
1235 1 0.0459945 0.00043435 0.00337651 387.802 
559 1 0.0474154 -0.000541394 0.0023621 337.114 
70 1 0.0493083 -0.000516063 0.00336394 408.819 
777 1 0.000999995 0.00110825 0.00381703 324.725 
471 1 0.000999996 0.00219067 0.00213525 317.875 
1043 1 0.00259936 0.0010612 0.00261711 344.684 
1165 1 0.0043985 0.00192522 0.00248846 364.611 
1342 1 0.00615918 0.00122393 0.00312734 385.319 
948 1 0.00824989 0.00209418 0.00238418 356.974 
73 1 0.00954494 0.00198347 0.0040064 426.867 
505 1 0.0109079 0.00187772 0.00253671 350.727 
921 1 0.0128894 0.00162969 0.00264707 355.99 
698 1 0.0148031 0.00263621 0.00214408 394.032 
542 1 0.0161275 0.00214771 0.00356089 403.445 
202 1 0.0179548 0.00149021 0.00405531 478.21 
1312 1 0.0198177 0.00190183 0.00345535 462.02 
1100 1 0.0218928 0.00199069 0.0026682 435.422 
902 1 0.024654 0.0020511 0.00386609 478.781 
715 1 0.0275718 0.00203697 0.00271739 454.207 
209 1 0.0292263 0.00157551 0.00374179 481.458 
68 1 0.030945 0.00242399 0.00317064 421.366 
189 1 0.0323332 0.0010903 0.00262827 373.122 
122 1 0.0331342 0.00221269 0.00408336 427.438 
1112 1 0.0343195 0.0011875 0.00284081 388.433 
1259 1 0.0371473 0.00244187 0.00221728 412.358 
570 1 0.0366618 0.0011466 0.00380976 473.551 
1070 1 0.0392343 0.0028996 0.00293307 365.437 