ITEM: TIMESTEP
14300000
ITEM: NUMBER OF ATOMS
5000
ITEM: BOX BOUNDS mm mm mm
0 0.1
-0.015 0.015
0 0.3
ITEM: ATOMS id type x y z f_Temp[0] 
977 1 0.00102825 -0.014 0.000999993 301.114 
581 1 0.00280535 -0.013082 0.000999998 300 
980 1 0.00536401 -0.0139934 0.000999992 302.682 
1252 1 0.00736679 -0.0139976 0.000999998 300 
648 1 0.00943464 -0.014 0.000999991 305.02 
1049 1 0.0114352 -0.0139953 0.000999998 300 
585 1 0.0133901 -0.0135651 0.000999998 300 
453 1 0.0153494 -0.0139699 0.000999997 301.104 
812 1 0.0173493 -0.0139998 0.000999993 307.096 
1111 1 0.0195007 -0.0134438 0.000999984 307.252 
713 1 0.021422 -0.014 0.000999994 303.969 
1065 1 0.0234048 -0.014 0.00126756 302.001 
82 1 0.0265155 -0.0139931 0.000999994 306.632 
383 1 0.0285156 -0.014 0.000999992 305.318 
930 1 0.030521 -0.014 0.000999997 303.374 
936 1 0.0322405 -0.014 0.00202133 306.481 
1185 1 0.0365621 -0.014 0.000999997 301.041 
961 1 0.0387276 -0.014 0.00158109 305.368 
397 1 0.0415067 -0.014 0.000999998 302.804 
434 1 0.0453634 -0.0139995 0.000999989 301.451 
845 1 0.0473634 -0.013996 0.000999993 300.456 
69 1 0.0493634 -0.014 0.000999998 300 
775 1 0.00100002 -0.0113754 0.000999998 300 
100 1 0.0029795 -0.0110896 0.000999992 304.067 
914 1 0.00557519 -0.0112015 0.00100005 306.28 
80 1 0.00757517 -0.0111953 0.000999991 309.5 
451 1 0.00998402 -0.0120769 0.000999996 310.564 
796 1 0.00840292 -0.0126653 0.00207425 304.666 
693 1 0.0116631 -0.012314 0.00206038 319.769 
1317 1 0.0131863 -0.0115688 0.000999987 316.825 
915 1 0.0160944 -0.0121103 0.000999994 308.215 
410 1 0.0190455 -0.011496 0.000999996 307.686 
830 1 0.0224371 -0.0122702 0.000999998 300.346 
320 1 0.0247898 -0.0125822 0.000999992 308.692 
112 1 0.0274126 -0.0122056 0.000999996 310.133 
75 1 0.0305709 -0.0120006 0.000999993 309.494 
44 1 0.0325472 -0.012308 0.000999993 305.851 
903 1 0.0346614 -0.0124727 0.000999987 312.037 
501 1 0.0399655 -0.0125406 0.000999994 308.896 
606 1 0.0381813 -0.0121244 0.00200969 317.605 
895 1 0.0424953 -0.0112468 0.000999991 310.143 
98 1 0.0440827 -0.0124633 0.000999998 302.778 
591 1 0.0463596 -0.0121913 0.000999998 300 
260 1 0.0483399 -0.0113954 0.000999988 304.972 
341 1 0.00236835 -0.00912792 0.000999989 305.798 
781 1 0.00434315 -0.00962605 0.00099999 309.685 
163 1 0.00630249 -0.00922482 0.000999992 313.128 
180 1 0.00969329 -0.0104144 0.00207298 334.136 
657 1 0.0113778 -0.0106424 0.000999994 311.138 
479 1 0.0130888 -0.00957115 0.00099999 321.71 
1334 1 0.0156328 -0.00933789 0.000999989 327.611 
236 1 0.0173021 -0.0105161 0.00100003 320.444 
463 1 0.0189969 -0.0094543 0.000999987 324.563 
1058 1 0.020961 -0.0109208 0.000999997 306.242 
214 1 0.021988 -0.00920459 0.000999991 324.67 
48 1 0.0236592 -0.010687 0.000999996 314.245 
1001 1 0.0256579 -0.0107646 0.000999989 313.25 
157 1 0.0275721 -0.0101849 0.00099999 326.654 
154 1 0.0295703 -0.010269 0.000999998 324.469 
849 1 0.0316901 -0.0101266 0.000999998 302.253 
986 1 0.0337356 -0.0106994 0.000999992 317.157 
352 1 0.0353603 -0.00937906 0.000999998 319.55 
391 1 0.037078 -0.0107965 0.00099999 318.071 
828 1 0.0380495 -0.00904828 0.000999991 328.029 
1302 1 0.0391669 -0.010707 0.000999988 316.964 
1153 1 0.0410033 -0.00991491 0.000999992 319.482 
1029 1 0.0435086 -0.00935559 0.000999995 314.016 
734 1 0.0450013 -0.0106867 0.000999997 304.066 
168 1 0.0467898 -0.0104128 0.001852 308.786 
673 1 0.0479253 -0.00900397 0.000999991 309.075 
230 1 0.00208414 -0.00710001 0.000999993 313.447 
962 1 0.00400567 -0.00765473 0.000999989 319.001 
829 1 0.00807393 -0.0082964 0.000999989 325.13 
409 1 0.0100683 -0.00814704 0.00100015 320.285 
524 1 0.0120481 -0.00786324 0.000999994 317.964 
1221 1 0.0140493 -0.00781587 0.000999998 302.826 
1092 1 0.0173393 -0.0086903 0.00181755 346.854 
461 1 0.016624 -0.00701102 0.000999992 323.747 
1062 1 0.0197951 -0.00762048 0.000999986 343.21 
790 1 0.0215614 -0.00748521 0.00192831 369.923 
200 1 0.0233297 -0.00737885 0.000999993 343.415 
602 1 0.0247258 -0.00899514 0.000999997 312.249 
546 1 0.0254076 -0.0074302 0.00204216 317.447 
1240 1 0.0269157 -0.00822994 0.000999998 305.807 
247 1 0.0292594 -0.00829331 0.00099999 336.803 
973 1 0.0315646 -0.00811889 0.00099999 324.1 
1319 1 0.0334732 -0.00871669 0.000999992 323.412 
947 1 0.0365133 -0.00779137 0.00138712 307.316 
238 1 0.0398083 -0.00744564 0.000999998 312.215 
162 1 0.0418494 -0.00748758 0.000999997 305.631 
367 1 0.0444121 -0.00769988 0.0016651 310.303 
1274 1 0.0459344 -0.00881346 0.000999986 319.738 
1074 1 0.0498504 -0.00837686 0.000999998 300 
28 1 0.0010002 -0.00541922 0.000999994 307.53 
956 1 0.00299475 -0.00525808 0.000999998 300 
134 1 0.00500411 -0.00536152 0.000999994 324.741 
825 1 0.00684751 -0.00671657 0.000999995 324.154 
976 1 0.00894151 -0.00649438 0.000999994 336.231 
169 1 0.0109715 -0.00601028 0.000999993 332.033 
556 1 0.0129962 -0.00610228 0.000999995 334.168 
421 1 0.0149261 -0.00609382 0.001525 337.025 
1217 1 0.0184323 -0.00615665 0.000999998 327.164 
1325 1 0.0210595 -0.00573529 0.000999998 300 
496 1 0.0230199 -0.00528279 0.000999996 345.487 
639 1 0.024956 -0.005784 0.00099999 341.607 
1151 1 0.0269057 -0.0062297 0.000999984 342.082 
443 1 0.0289843 -0.00546698 0.000999998 300 
1231 1 0.0310308 -0.00545227 0.000999998 300 
146 1 0.0303193 -0.00698151 0.00207498 354.219 
1290 1 0.0330366 -0.00676492 0.000999997 313.878 
1075 1 0.0353259 -0.00621403 0.000999995 314.862 
618 1 0.038025 -0.00654034 0.000999998 302.535 
83 1 0.0399098 -0.00544822 0.000999985 329.728 
974 1 0.0424605 -0.00544572 0.000999991 325.813 
1289 1 0.0449382 -0.00588859 0.000999992 317.191 
772 1 0.0466402 -0.00609637 0.0020296 331.821 
530 1 0.0482999 -0.00652692 0.000999994 310.426 
283 1 0.00371087 -0.0033875 0.000999998 300 
750 1 0.00569473 -0.00311864 0.000999998 300.009 
234 1 0.00689912 -0.00471724 0.000999994 335.126 
1025 1 0.0080864 -0.00310763 0.000999998 300 
139 1 0.00957795 -0.00451696 0.000999998 300 
791 1 0.0119528 -0.0041857 0.000999985 347.53 
402 1 0.0153626 -0.004214 0.000999994 332.618 
1087 1 0.017357 -0.00447035 0.000999991 339.802 
519 1 0.0193899 -0.00431182 0.000999993 344.221 
275 1 0.0216938 -0.00378558 0.000999994 332.466 
142 1 0.0249492 -0.00393316 0.00175782 354.439 
90 1 0.0267754 -0.00423396 0.000999996 332.76 
492 1 0.032699 -0.00434362 0.000999993 320.941 
749 1 0.0350091 -0.00423928 0.000999994 324.004 
1187 1 0.0369358 -0.00484893 0.000999997 308.743 
175 1 0.0402006 -0.00358298 0.00166048 340.696 
1050 1 0.0420853 -0.00347573 0.000999995 313.476 
846 1 0.0439728 -0.00413701 0.000999988 318.25 
424 1 0.0456873 -0.00431841 0.00201368 318.155 
1243 1 0.0474114 -0.00430605 0.000999998 308.369 
3721 1 0.0493439 -0.00482097 0.000999988 307.089 
77 1 0.00106315 -0.00206845 0.000999998 300 
37 1 0.00269634 -0.00135299 0.00200246 334.689 
1108 1 0.00442621 -0.00130241 0.000999983 333.428 
385 1 0.0074663 -0.0011745 0.000999988 338.913 
89 1 0.0100509 -0.0025553 0.000999998 300 
318 1 0.0118586 -0.00167902 0.000999998 319.856 
32 1 0.0138228 -0.00205531 0.000999998 317.088 
964 1 0.0158217 -0.00212183 0.000999998 310.849 
1180 1 0.0177825 -0.00251614 0.000999993 328.276 
885 1 0.0201852 -0.00247261 0.000999997 333.583 
264 1 0.0220832 -0.00158202 0.000999986 355.344 
258 1 0.0241116 -0.00228266 0.001 358.624 
291 1 0.0258098 -0.00110755 0.000999998 320.358 
1052 1 0.0282802 -0.00291658 0.000999992 350.367 
486 1 0.0304223 -0.00274938 0.000999993 335.889 
401 1 0.0328101 -0.00186878 0.000999996 313.827 
91 1 0.0348112 -0.00186302 0.00099999 326.507 
1248 1 0.0364864 -0.00291987 0.00127711 314.527 
1196 1 0.0384654 -0.00283657 0.000999995 312.037 
351 1 0.0409167 -0.00183629 0.000999995 317.478 
1003 1 0.0429072 -0.00158981 0.000999997 310.72 
545 1 0.0452833 -0.00262575 0.000999997 312.722 
31 1 0.0472197 -0.00212533 0.000999991 307.904 
1027 1 0.0491105 -0.00283465 0.000999996 301.675 
620 1 0.00150677 0.000624044 0.000999984 315.685 
817 1 0.00371019 0.00056953 0.000999998 300 
127 1 0.00591125 -0.000406584 0.00199601 365.703 
306 1 0.00756563 0.000823028 0.000999994 319.312 
167 1 0.00960301 -0.000600847 0.000999992 339.317 
721 1 0.0132144 -0.000384327 0.00191523 370.137 
33 1 0.0157855 -0.000111801 0.000999998 300 
522 1 0.0178023 -0.000347203 0.000999998 300 
1330 1 0.0201727 -0.000472088 0.000999998 300 
624 1 0.0239822 -0.000286865 0.000999988 347.483 
799 1 0.0222849 0.000162791 0.00195755 373.798 
644 1 0.0278053 -0.000973797 0.000999988 359.037 
181 1 0.0267603 0.000746381 0.000999994 351.403 
289 1 0.0300684 -0.000444246 0.000999989 338.386 
899 1 0.0320249 -2.93762e-05 0.000999997 310.849 
184 1 0.0341146 1.69144e-05 0.000999998 301.445 
1191 1 0.0369445 -0.000988178 0.000999998 304.512 
625 1 0.0395792 -0.000291121 0.000999998 307.567 
250 1 0.0417007 7.81936e-06 0.000999996 313.551 
1247 1 0.0440454 0.000574325 0.000999991 317.094 
518 1 0.045939 -0.000588995 0.000999992 317.683 
198 1 0.0476838 0.000898596 0.000999998 300 
527 1 0.0488465 -0.000852146 0.000999995 303.126 
904 1 0.0494914 0.00083641 0.00185608 312.019 
305 1 0.00264916 0.00226565 0.00100002 319.682 
408 1 0.00557638 0.00129512 0.000999993 337.15 
1037 1 0.00643218 0.00282586 0.00196146 353.876 
1054 1 0.00968458 0.00225442 0.000999996 315.294 
310 1 0.0118958 0.00105169 0.000999998 305.137 
364 1 0.0129022 0.00293552 0.000999998 309.16 
392 1 0.0139525 0.00123354 0.000999991 334.224 
430 1 0.0169059 0.00174167 0.000999993 335.897 
723 1 0.0189962 0.00172787 0.000999992 332.346 
279 1 0.0209922 0.00135249 0.000999998 300 
1099 1 0.0248586 0.00295496 0.000999993 344.859 
1044 1 0.0241312 0.00141222 0.00204443 393.191 
1226 1 0.0268526 0.0027672 0.000999989 361.231 
474 1 0.0285332 0.00167963 0.000999992 336.281 
1175 1 0.0304799 0.00146998 0.0014079 343.995 
280 1 0.033244 0.00181831 0.000999998 304.48 
476 1 0.0350733 0.0024588 0.0014934 323 
735 1 0.0363974 0.00104339 0.000999985 337.679 
311 1 0.0384834 0.00158561 0.000999987 333.556 
562 1 0.0405308 0.00178272 0.000999989 324.163 
197 1 0.0425283 0.0018813 0.000999995 311.696 
615 1 0.0443907 0.00261031 0.000999986 318.362 
568 1 0.0458138 0.00132471 0.00156747 331.008 
1197 1 0.0497082 0.00263088 0.000999994 311.461 
366 1 0.00100063 0.00383724 0.000999997 304.396 
920 1 0.0043839 0.00326097 0.00099999 321.455 
1036 1 0.00644525 0.00457953 0.000999989 320.786 
314 1 0.00844792 0.00420616 0.000999998 300 
1224 1 0.0104826 0.00408961 0.000999992 326.899 
1124 1 0.0123036 0.0049164 0.000999992 332.582 
1286 1 0.0152051 0.00422662 0.000999983 342.047 
972 1 0.0186014 0.00369399 0.000999996 319.495 
493 1 0.0202753 0.0030119 0.00185588 374.281 
939 1 0.02075 0.00475605 0.000999988 352.041 
923 1 0.0220823 0.00307749 0.000999993 343.089 
241 1 0.0235323 0.00445514 0.00099999 351.946 
322 1 0.0254857 0.00479463 0.00147149 357.596 
485 1 0.0274261 0.00468323 0.000999995 338.337 
814 1 0.0294225 0.00456453 0.000999989 342.312 
1229 1 0.031651 0.00303909 0.000999991 332.085 
879 1 0.03293 0.00472551 0.000999998 300 
1019 1 0.0354244 0.00436559 0.000999992 328.469 
26 1 0.0374496 0.00408384 0.000999998 300 
946 1 0.0393304 0.00340355 0.000999998 304.431 
1314 1 0.041438 0.0035651 0.000999997 312.836 
300 1 0.0429164 0.00497018 0.000999991 316.862 
757 1 0.0450352 0.0045574 0.000999996 310.663 
121 1 0.0464429 0.00313648 0.000999998 300 
2899 1 0.0491937 0.0045982 0.000999981 317.732 
235 1 0.0481355 0.00327053 0.00205706 333.857 
852 1 0.00147344 0.00578054 0.000999994 302.765 
143 1 0.00359123 0.00509717 0.000999997 315.32 
712 1 0.00611097 0.00655139 0.000999995 312.275 
857 1 0.00765647 0.00583318 0.0020467 324.849 
156 1 0.010103 0.00606731 0.000999991 324.87 
733 1 0.0125017 0.00690655 0.000999988 331.026 
761 1 0.0142905 0.00601057 0.000999998 300 
1306 1 0.0170989 0.00501409 0.000999991 330.001 
1285 1 0.0165015 0.00696691 0.000999998 303.974 
237 1 0.0189814 0.0056897 0.000999997 325.273 
621 1 0.0222928 0.00602882 0.00099999 340.508 
1134 1 0.0242725 0.00631312 0.000999989 343.017 
1154 1 0.028986 0.0067722 0.000999991 343.037 
332 1 0.0310772 0.00569307 0.000999998 300 
404 1 0.0326452 0.00696578 0.000999994 323.839 
1299 1 0.0344553 0.0061151 0.000999994 321.293 
1088 1 0.0366774 0.00592881 0.000999988 348.98 
54 1 0.0390828 0.00538836 0.000999994 319.049 
176 1 0.0410339 0.00582837 0.000999992 313.827 
544 1 0.0455192 0.00651207 0.000999998 300 
469 1 0.0472716 0.00515104 0.000999995 305.967 
14 1 0.048698 0.00655308 0.000999996 307.194 
741 1 0.000999996 0.00772368 0.00100003 302.192 
187 1 0.00278473 0.00862649 0.000999991 304.518 
540 1 0.00401709 0.00705129 0.000999987 310.199 
193 1 0.00477516 0.00896069 0.000999998 300 
253 1 0.0068207 0.00842122 0.000999996 308.192 
959 1 0.00850773 0.00730957 0.000999992 314.007 
328 1 0.0114072 0.00885333 0.000999998 300 
718 1 0.0132987 0.00844915 0.0019926 330.181 
978 1 0.0151909 0.00848408 0.000999991 326.903 
488 1 0.0171399 0.00893312 0.000999991 322.37 
847 1 0.0186891 0.00766823 0.000999992 327.399 
473 1 0.0206941 0.00740147 0.000999998 300 
854 1 0.0226507 0.00799697 0.000999991 343.576 
207 1 0.026375 0.00739626 0.000999998 300 
513 1 0.0293352 0.00896057 0.00151575 320.294 
651 1 0.0307733 0.00766986 0.000999989 327.968 
1298 1 0.0326488 0.00875108 0.00190147 315.945 
1244 1 0.0353883 0.00770327 0.00177925 345.94 
611 1 0.0372176 0.00791835 0.000999986 324.902 
730 1 0.0393577 0.0075496 0.000999997 314.545 
835 1 0.0417267 0.00744182 0.00195747 344.663 
110 1 0.0436805 0.00766014 0.000999996 312.155 
428 1 0.0469194 0.00795518 0.000999997 300.688 
174 1 0.0497579 0.00825521 0.000999987 311.556 
205 1 0.00100021 0.00991911 0.000999985 301.346 
177 1 0.00272024 0.0104073 0.001908 302.442 
674 1 0.00638342 0.0103728 0.000999989 306.069 
79 1 0.00942032 0.00908922 0.000999998 310.342 
1320 1 0.0104938 0.0103921 0.00207241 317.476 
779 1 0.012119 0.0108494 0.00100017 311.934 
292 1 0.0139551 0.0100566 0.000999991 317.855 
11 1 0.015904 0.0105056 0.00099999 317.487 
50 1 0.0188973 0.00950435 0.00176508 313.853 
1042 1 0.0207436 0.00942883 0.000999998 303.085 
694 1 0.0226224 0.0101149 0.000999989 328.499 
147 1 0.0240051 0.00907428 0.00200252 359.079 
983 1 0.0256274 0.00967679 0.000999989 323.992 
798 1 0.0278229 0.0101635 0.000999996 307.534 
966 1 0.0311269 0.00968438 0.000999995 308.859 
1186 1 0.033815 0.0102344 0.000999995 312.523 
1091 1 0.035782 0.00950263 0.000999993 321.498 
93 1 0.0382867 0.00960858 0.000999998 314.517 
1160 1 0.0399631 0.0106994 0.000999988 304.958 
575 1 0.0411762 0.00910919 0.00099999 314.92 
985 1 0.04312 0.00957997 0.000999996 305.183 
359 1 0.0453271 0.00941899 0.000999995 307.713 
969 1 0.0472618 0.00992566 0.000999998 301.798 
78 1 0.0492059 0.0103951 0.000999992 301.17 
363 1 0.000999994 0.0125472 0.000999995 300.234 
811 1 0.00296408 0.0122886 0.00127469 300.953 
743 1 0.00449491 0.0110312 0.000999993 301.885 
1251 1 0.00600936 0.0123375 0.000999995 301.643 
72 1 0.009055 0.0112752 0.000999994 305.597 
1313 1 0.0110293 0.0125265 0.00099999 305.261 
654 1 0.0139151 0.0120596 0.000999989 312.153 
271 1 0.0178305 0.0110471 0.000999998 300 
15 1 0.0191506 0.0123316 0.00178965 309.875 
215 1 0.0208644 0.0116686 0.00099999 312.577 
420 1 0.0226323 0.0118976 0.00190669 315.17 
449 1 0.0244555 0.012149 0.000999998 303.767 
39 1 0.0263672 0.0115349 0.000999992 309.657 
188 1 0.0295985 0.0111181 0.000999991 314.512 
425 1 0.028129 0.0124814 0.000999992 304.076 
1095 1 0.0312193 0.01229 0.000999998 300.001 
1227 1 0.033219 0.0122468 0.000999995 305.404 
119 1 0.0353447 0.0122906 0.000999998 300 
650 1 0.0369685 0.0111127 0.000999989 311.482 
1138 1 0.0386186 0.0122428 0.000999992 305.632 
979 1 0.0405124 0.0124274 0.00184388 308.324 
316 1 0.0424183 0.0117034 0.000999998 300.778 
1297 1 0.0443447 0.0111611 0.00099999 305.829 
1206 1 0.046545 0.0118446 0.000999993 302.514 
380 1 0.0484365 0.0121497 0.00157368 300.476 
347 1 0.00209295 0.014 0.00183359 300.213 
309 1 0.00396196 0.014 0.000999998 300.343 
1130 1 0.00566062 0.014 0.00205571 301.123 
807 1 0.00735927 0.014 0.000999991 300.882 
114 1 0.00931258 0.0135525 0.000999993 301.735 
240 1 0.0123816 0.014 0.000999997 302.544 
672 1 0.0144052 0.014 0.000999998 301.746 
729 1 0.0161846 0.014 0.00191321 307.661 
758 1 0.0179409 0.0137147 0.000999996 304.128 
1038 1 0.0199206 0.014 0.000999993 303.582 
81 1 0.0217812 0.0139926 0.00173331 307.136 
676 1 0.0236419 0.0139761 0.000999994 303.297 
534 1 0.0264791 0.0137727 0.000999998 300 
526 1 0.0299137 0.014 0.000999997 300.657 
101 1 0.0322566 0.014 0.000999994 303.017 
1304 1 0.0342566 0.014 0.00099999 304.231 
1171 1 0.0370774 0.0139052 0.000999998 300 
442 1 0.0396097 0.014 0.000999989 303.609 
348 1 0.0423213 0.0137117 0.000999998 300 
626 1 0.0443208 0.014 0.000999994 300.593 
935 1 0.046656 0.0139452 0.000999998 300 
766 1 0.0489339 0.014 0.000999995 300.225 
728 1 0.00392052 -0.014 0.00238429 303.233 
1249 1 0.00256444 -0.0132265 0.00363435 308.691 
929 1 0.00450257 -0.0131416 0.00412055 314.983 
1137 1 0.00634469 -0.014 0.00274303 307.543 
1097 1 0.0078871 -0.0133954 0.0038635 324.4 
598 1 0.0095839 -0.014 0.0029944 315.152 
1056 1 0.0115791 -0.014 0.0031329 316.697 
747 1 0.0135702 -0.014 0.00294461 308.564 
1337 1 0.0162623 -0.0135725 0.00273454 304.276 
789 1 0.0184969 -0.014 0.00263796 318.307 
894 1 0.0203583 -0.014 0.00336963 317.991 
507 1 0.0220847 -0.0132262 0.00272104 314.087 
170 1 0.0250702 -0.014 0.00238244 309.022 
993 1 0.0240141 -0.0139722 0.00408059 328.71 
1048 1 0.0275175 -0.0134232 0.00263438 317.244 
1267 1 0.0262053 -0.014 0.00402915 305.828 
43 1 0.0295 -0.014 0.00274091 309.594 
1169 1 0.0312288 -0.014 0.00374657 323.676 
1008 1 0.0331407 -0.0134146 0.0037886 312.913 
1168 1 0.0342309 -0.014 0.00221734 307.276 
288 1 0.0350354 -0.014 0.00404837 313.8 
158 1 0.0375146 -0.014 0.00317125 301.83 
47 1 0.0406544 -0.0133617 0.00269294 313.907 
274 1 0.0425983 -0.014 0.00386091 311.192 
652 1 0.0441287 -0.014 0.00257328 304.782 
689 1 0.0463276 -0.014 0.00275222 301.686 
1184 1 0.0483371 -0.014 0.00274697 301.597 
1026 1 0.000999991 -0.0126891 0.00251021 303.634 
261 1 0.000999995 -0.011326 0.00397369 307.839 
1343 1 0.00301409 -0.0113076 0.00397475 319.858 
87 1 0.00423913 -0.0120312 0.0022356 303.451 
355 1 0.00504244 -0.0112267 0.00391614 327.491 
1208 1 0.00656471 -0.0120234 0.00253146 305.077 
22 1 0.00843274 -0.011079 0.00371936 337.58 
378 1 0.0101037 -0.0120919 0.00329275 321.288 
1220 1 0.0128444 -0.012285 0.00367402 318.068 
4 1 0.0145348 -0.0124065 0.00221646 309.8 
336 1 0.015519 -0.0118383 0.00386221 313.431 
622 1 0.0176585 -0.0122282 0.00224094 308.787 
1077 1 0.0174136 -0.0112732 0.00416425 335.888 
736 1 0.0189909 -0.012447 0.00379728 359.969 
681 1 0.0203697 -0.0122626 0.00236006 305.557 
859 1 0.022665 -0.0115618 0.00410205 347.944 
806 1 0.0239103 -0.0124121 0.00278814 328.457 
1152 1 0.0260548 -0.0120702 0.00246214 327.266 
999 1 0.0279366 -0.0119296 0.00389669 327.379 
1316 1 0.0289735 -0.011821 0.0021899 321.426 
797 1 0.029953 -0.0124734 0.00395094 324.212 
1264 1 0.0315301 -0.0122716 0.00273395 305.266 
20 1 0.0336445 -0.0118753 0.00261523 334.138 
1336 1 0.0350723 -0.0118548 0.00401562 321.255 
1126 1 0.0354465 -0.0110244 0.00213404 321.819 
233 1 0.0359508 -0.0129117 0.00256269 305.242 
450 1 0.0369507 -0.0113847 0.00340195 327.572 
160 1 0.0392319 -0.0123737 0.00369314 340.748 
724 1 0.0409925 -0.0114286 0.00230715 326.928 
876 1 0.0419024 -0.0120667 0.00396995 333.511 
872 1 0.0425493 -0.0128203 0.00223337 303.158 
704 1 0.0449215 -0.0120423 0.00276611 304.401 
945 1 0.0469145 -0.0120959 0.00292509 308.066 
221 1 0.0489219 -0.0120878 0.00278378 309.564 
1245 1 0.000999993 -0.00928449 0.00395345 313.171 
744 1 0.00199872 -0.0103191 0.00256345 311.355 
635 1 0.00390569 -0.00984746 0.00293895 323.412 
136 1 0.00590224 -0.00974057 0.00289044 329.285 
418 1 0.00782929 -0.00974667 0.00235529 330.291 
1057 1 0.0112144 -0.00913699 0.00230648 328.126 
259 1 0.0102857 -0.010154 0.00396539 367.162 
1318 1 0.0125372 -0.0106075 0.00262928 347.785 
725 1 0.0121185 -0.00937428 0.00414712 405.088 
1205 1 0.0144017 -0.00990101 0.00247217 358.636 
422 1 0.0163222 -0.0103914 0.00273907 330.842 
924 1 0.0183927 -0.0103733 0.00267041 342.087 
395 1 0.0200087 -0.0107212 0.00379621 344.856 
1195 1 0.0205045 -0.00947314 0.00231414 325.611 
500 1 0.0225748 -0.0102262 0.0026161 336.926 
213 1 0.0246572 -0.0105577 0.00272838 326.234 
909 1 0.0263344 -0.0095128 0.00242 351.515 
740 1 0.0265318 -0.0105259 0.00413308 367.797 
521 1 0.0284821 -0.00929895 0.00254496 363.773 
997 1 0.0297075 -0.0105331 0.00353251 356.331 
445 1 0.0304806 -0.00911342 0.00235493 353.019 
1261 1 0.0322714 -0.0104207 0.00289093 311.153 
529 1 0.0340991 -0.00964259 0.00265859 345.37 
277 1 0.0355513 -0.00991304 0.00402491 361.37 
124 1 0.0367214 -0.00947922 0.002462 354.044 
960 1 0.0385169 -0.0102744 0.00284128 346.071 
510 1 0.0401572 -0.0106169 0.00393302 388.987 
533 1 0.0434256 -0.0107171 0.00268929 322.502 
552 1 0.044975 -0.00945352 0.0026339 350.563 
697 1 0.0458235 -0.0106606 0.00398403 361.067 
440 1 0.0475928 -0.00981798 0.00358448 335.317 
1021 1 0.0490805 -0.0100354 0.00226562 318.92 
95 1 0.0495155 -0.0105984 0.00413479 335.191 
564 1 0.00099999 -0.00828587 0.00219099 310.851 
1178 1 0.00294431 -0.00812116 0.0026297 314.324 
1005 1 0.00493772 -0.00799531 0.00273643 346.052 
284 1 0.00642498 -0.00807971 0.00407095 365.661 
27 1 0.00807073 -0.00718883 0.00266529 369.371 
344 1 0.00938651 -0.00866083 0.00298457 356.714 
455 1 0.0105623 -0.00708018 0.00263943 373.534 
636 1 0.0124312 -0.00770239 0.00298568 366.441 
1006 1 0.0139625 -0.00858986 0.00391714 405.46 
457 1 0.0154895 -0.00790228 0.00238508 313.444 
719 1 0.0174886 -0.00898444 0.00379015 388.711 
970 1 0.0173748 -0.00710733 0.00303941 359.828 
179 1 0.019032 -0.00819104 0.00275844 372.84 
138 1 0.0218439 -0.00861733 0.00355266 387.047 
818 1 0.0203462 -0.00738063 0.00402971 436.012 
246 1 0.0236322 -0.00852863 0.00260825 337.718 
52 1 0.0251761 -0.00874884 0.00386041 385.799 
788 1 0.0270982 -0.00816529 0.00368523 386.517 
988 1 0.028116 -0.00722336 0.00224411 375.389 
490 1 0.0294674 -0.00792801 0.00361716 395.292 
84 1 0.031579 -0.00882185 0.0040007 427.257 
574 1 0.0326897 -0.00787248 0.00263506 348.794 
1270 1 0.0346324 -0.00763772 0.00222151 342.969 
890 1 0.0361877 -0.00783246 0.00346367 402.245 
51 1 0.0380266 -0.00798128 0.00269142 382.552 
631 1 0.0399048 -0.00892272 0.00234495 320.219 
96 1 0.0393912 -0.00787195 0.00414942 455.959 
511 1 0.0410111 -0.00732224 0.00280826 330.436 
466 1 0.041122 -0.00887299 0.00410041 459.723 
1303 1 0.0421003 -0.00893786 0.00235721 358.798 
958 1 0.0436162 -0.00824038 0.00345969 399.503 
801 1 0.0466159 -0.00823817 0.00279014 351.377 
12 1 0.0485517 -0.00783185 0.00249456 324.955 
1322 1 0.00166231 -0.00652449 0.00286836 328.947 
1341 1 0.00396419 -0.00627271 0.00244508 336.889 
558 1 0.00510905 -0.00651309 0.00406821 392.541 
1255 1 0.00617585 -0.0056989 0.0025853 355.078 
56 1 0.00920399 -0.00554256 0.00273928 391.874 
1328 1 0.0124008 -0.00589791 0.00386145 457.815 
981 1 0.0141383 -0.00669754 0.00326137 378.33 
63 1 0.016488 -0.00538171 0.00255375 381.655 
942 1 0.0197866 -0.00626282 0.00246853 397.424 
1115 1 0.0187325 -0.00616465 0.0041654 462.747 
394 1 0.0204476 -0.00512481 0.00397452 393.482 
433 1 0.0221624 -0.00664013 0.00363846 453.982 
1004 1 0.0238057 -0.00623755 0.0025719 388.746 
957 1 0.0256907 -0.00562412 0.0028533 347.156 
436 1 0.0276169 -0.00518118 0.0025475 393.901 
769 1 0.0283152 -0.00634638 0.0040305 460.724 
141 1 0.0300155 -0.00540323 0.00326521 402.294 
59 1 0.0319484 -0.00601689 0.00271977 358.068 
104 1 0.0339034 -0.00541545 0.00219479 333.193 
489 1 0.0353605 -0.00612222 0.00408883 413.154 
1166 1 0.0366481 -0.00613693 0.00250276 313.967 
58 1 0.0378524 -0.00653306 0.00405974 424.512 
593 1 0.0392466 -0.00639765 0.00263055 353.605 
897 1 0.041185 -0.00533196 0.00253628 371.349 
1 1 0.0428685 -0.00661072 0.0025736 344.991 
759 1 0.0446992 -0.00576291 0.00298167 357.194 
396 1 0.0462771 -0.0066257 0.00392378 402.224 
1234 1 0.0482705 -0.00512445 0.00266 326.358 
3839 1 0.0498275 -0.00635211 0.00292208 343.294 
539 1 0.000999991 -0.00463755 0.00284091 318.855 
502 1 0.0028692 -0.00496099 0.00348449 332.119 
1090 1 0.00241806 -0.00326162 0.00253127 325.931 
666 1 0.00465322 -0.00440221 0.00271947 338.592 
102 1 0.00755571 -0.00396157 0.00273142 381.036 
263 1 0.0095279 -0.00357948 0.00294262 420.069 
659 1 0.0111076 -0.00492458 0.00267413 349.926 
61 1 0.0132155 -0.00474062 0.00244835 382.967 
701 1 0.014857 -0.00485586 0.003585 428.284 
968 1 0.0144952 -0.00320426 0.00249262 378.881 
949 1 0.0164875 -0.00336364 0.00242094 362.956 
815 1 0.0184075 -0.00482756 0.00266398 386.908 
941 1 0.0219151 -0.00493099 0.00262965 376.815 
793 1 0.0203805 -0.00364863 0.00260586 384.806 
371 1 0.0217992 -0.00348212 0.00400576 500.085 
437 1 0.0237219 -0.00436751 0.00327611 372.003 
232 1 0.0256883 -0.00374046 0.00360621 400.07 
1053 1 0.0274331 -0.0032043 0.00278871 359.381 
1113 1 0.0294168 -0.00367225 0.0024619 398.697 
239 1 0.0285386 -0.00436099 0.00412155 495.48 
125 1 0.0313661 -0.00411936 0.00247416 357.086 
503 1 0.0305202 -0.00320882 0.00406428 457.861 
685 1 0.0338027 -0.00315327 0.00216831 333.149 
1183 1 0.0329001 -0.00455259 0.00369441 348.783 
607 1 0.0355435 -0.00451931 0.00290681 375.935 
670 1 0.0344352 -0.0033252 0.00406679 466.201 
337 1 0.0372277 -0.00348272 0.00320522 378.864 
1129 1 0.0385362 -0.00458563 0.00217014 340.569 
731 1 0.0397943 -0.0039422 0.00358553 438.079 
571 1 0.0429846 -0.00447594 0.00270542 330.988 
971 1 0.0428698 -0.00304037 0.00409671 424.184 
708 1 0.0447234 -0.00389631 0.00371446 347.204 
886 1 0.0466457 -0.00466918 0.00373368 328.041 
1181 1 0.0478672 -0.0031672 0.00257964 326.002 
7 1 0.000999995 -0.00224926 0.00351349 333.838 
194 1 0.00444504 -0.00241389 0.00266259 365.227 
824 1 0.00663811 -0.002199 0.00250483 366.36 
850 1 0.00789364 -0.0024833 0.00403545 382.534 
520 1 0.00878403 -0.00181657 0.00236061 381.053 
1122 1 0.011365 -0.00295271 0.00246086 388.346 
1071 1 0.0110248 -0.00157098 0.0038662 443.681 
1326 1 0.0128951 -0.00189142 0.00319063 398.73 
592 1 0.0149515 -0.00128289 0.00280888 387.259 
251 1 0.0169801 -0.001426 0.00247444 352.94 
702 1 0.0161354 -0.00228746 0.00406953 346.673 
1149 1 0.0180125 -0.00280077 0.00358607 433.055 
379 1 0.0189674 -0.00158635 0.00231587 363.848 
1284 1 0.0210353 -0.00176092 0.00269408 407.015 
794 1 0.0227832 -0.00284188 0.00238658 399.844 
448 1 0.0225297 -0.0013417 0.0039554 459.976 
1114 1 0.0242126 -0.00239472 0.00371208 471.185 
1335 1 0.0270199 -0.00120829 0.00282432 451.704 
687 1 0.0291767 -0.00168212 0.00229324 397.687 
753 1 0.0287052 -0.00236798 0.00411184 497.954 
628 1 0.0312942 -0.00143576 0.00223057 334.321 
937 1 0.0323336 -0.00265285 0.00342984 397.04 
637 1 0.0355118 -0.00215918 0.00284971 379.89 
998 1 0.0373732 -0.001489 0.00314284 355.345 
128 1 0.0393168 -0.00208354 0.00264561 336.898 
871 1 0.0411969 -0.00260098 0.00308983 317.304 
992 1 0.0426257 -0.00120919 0.00294356 328.321 
587 1 0.0438385 -0.00269671 0.00238109 347.888 
710 1 0.0445866 -0.00189194 0.0040522 414.978 
512 1 0.0461727 -0.00207084 0.00270327 306.77 
21 1 0.0478069 -0.00170423 0.00394202 372.439 
1170 1 0.0495766 -0.00258666 0.00344025 351.142 
822 1 0.000999987 -0.000473589 0.00259319 322.585 
109 1 0.0024542 -0.000832872 0.00391839 369.22 
528 1 0.00578114 -0.000842966 0.00394346 446.796 
242 1 0.00411277 -0.000225061 0.00285187 342.984 
144 1 0.00763281 -0.000245222 0.00300108 375.175 
1192 1 0.00914761 -0.000927255 0.00411472 429.728 
419 1 0.00945075 0.000512878 0.0026542 376.135 
412 1 0.0112445 -0.000305026 0.0023172 324.412 
1076 1 0.0126516 8.4254e-06 0.00379379 424.135 
62 1 0.0149188 0.000712616 0.0026792 391.914 
296 1 0.0169126 0.000567618 0.00261911 388.464 
1125 1 0.0179476 -0.000535511 0.00398153 412.261 
229 1 0.0189022 0.000404401 0.0024965 385.482 
1121 1 0.0207436 0.000143193 0.00323189 407.43 
1269 1 0.0233602 0.000450973 0.00361969 470.003 
182 1 0.0248598 -0.000777839 0.00272881 352.541 
438 1 0.0259157 0.000919027 0.00280466 434.648 
1194 1 0.0286065 0.000232978 0.00237905 392.834 
896 1 0.0318096 -0.000830484 0.00406577 446.241 
1030 1 0.0305119 0.000242498 0.00298658 389.255 
334 1 0.033172 -0.000725086 0.00260031 309.164 
19 1 0.0356439 -0.00022773 0.00234772 379.2 
65 1 0.0377027 0.000305464 0.00232351 348.882 
1120 1 0.0390534 -0.000489579 0.00382456 404.147 
1079 1 0.0395763 0.00096548 0.00255594 346.155 
1268 1 0.0407291 -0.00066785 0.0026123 341.409 
267 1 0.0425149 0.000767667 0.00266122 330.878 
307 1 0.0436758 2.84905e-05 0.00411238 428.168 
640 1 0.0445885 -0.000664407 0.00247324 355.033 
1235 1 0.0459945 0.00043435 0.00337651 332.592 
559 1 0.0474154 -0.000541394 0.0023621 307.018 
70 1 0.0493083 -0.000516063 0.00336394 331.149 
777 1 0.000999995 0.00110825 0.00381703 320.409 
471 1 0.000999996 0.00219067 0.00213525 314.377 
1043 1 0.00259936 0.0010612 0.00261711 336.806 
1165 1 0.0043985 0.00192522 0.00248846 357.671 
1342 1 0.00615918 0.00122393 0.00312734 372.047 
948 1 0.00824989 0.00209418 0.00238418 339.241 
73 1 0.00954494 0.00198347 0.0040064 406.368 
505 1 0.0109079 0.00187772 0.00253671 329.589 
921 1 0.0128894 0.00162969 0.00264707 330.616 
698 1 0.0148031 0.00263621 0.00214408 371.352 
542 1 0.0161275 0.00214771 0.00356089 373.87 
202 1 0.0179548 0.00149021 0.00405531 452.563 
1312 1 0.0198177 0.00190183 0.00345535 436.091 
1100 1 0.0218928 0.00199069 0.0026682 410.698 
902 1 0.024654 0.0020511 0.00386609 457.824 
715 1 0.0275718 0.00203697 0.00271739 422.886 
209 1 0.0292263 0.00157551 0.00374179 445.705 
68 1 0.030945 0.00242399 0.00317064 379.016 
189 1 0.0323332 0.0010903 0.00262827 336.184 
122 1 0.0331342 0.00221269 0.00408336 374.476 
1112 1 0.0343195 0.0011875 0.00284081 345.198 
1259 1 0.0371473 0.00244187 0.00221728 373.796 
570 1 0.0366618 0.0011466 0.00380976 414.569 
1070 1 0.0392343 0.0028996 0.00293307 324.888 