ITEM: TIMESTEP
18700000
ITEM: NUMBER OF ATOMS
5000
ITEM: BOX BOUNDS mm mm mm
0 0.1
-0.015 0.015
0 0.3
ITEM: ATOMS id type x y z f_Temp[0] 
977 1 0.00102825 -0.014 0.000999993 301.709 
581 1 0.00280538 -0.013082 0.000999998 300 
980 1 0.00536401 -0.0139934 0.000999992 303.932 
1252 1 0.00736681 -0.0139976 0.000999998 300 
648 1 0.00943464 -0.014 0.000999991 306.827 
1049 1 0.0114353 -0.0139953 0.000999998 300 
585 1 0.0133901 -0.013565 0.000999998 300 
453 1 0.0153494 -0.0139698 0.000999997 301.974 
812 1 0.0173493 -0.0139998 0.000999993 308.773 
1111 1 0.0195007 -0.0134438 0.000999984 309.038 
713 1 0.021422 -0.014 0.000999994 306.167 
1065 1 0.0234048 -0.014 0.00126756 303.511 
82 1 0.0265155 -0.0139931 0.000999994 310.642 
383 1 0.0285156 -0.014 0.000999992 308.531 
930 1 0.030521 -0.014 0.000999997 305.879 
936 1 0.0322405 -0.014 0.00202133 311.013 
1185 1 0.0365621 -0.014 0.000999997 303.057 
961 1 0.0387276 -0.014 0.00158109 311.688 
397 1 0.0415067 -0.014 0.000999998 307.497 
434 1 0.0453634 -0.0139995 0.000999989 305.427 
845 1 0.0473634 -0.013996 0.000999993 302.703 
69 1 0.0493634 -0.014 0.000999998 300 
775 1 0.00100002 -0.0113754 0.000999998 300 
100 1 0.0029795 -0.0110896 0.000999992 305.767 
914 1 0.00557519 -0.0112015 0.00100005 309.378 
80 1 0.00757517 -0.0111953 0.000999991 312.947 
451 1 0.00998402 -0.0120769 0.000999996 314.861 
796 1 0.00840292 -0.0126653 0.00207425 307.535 
693 1 0.0116631 -0.012314 0.00206038 325.156 
1317 1 0.0131863 -0.0115688 0.000999987 320.517 
915 1 0.0160944 -0.0121103 0.000999994 311.776 
410 1 0.0190455 -0.011496 0.000999996 311.138 
830 1 0.0224371 -0.0122702 0.000999998 300.784 
320 1 0.0247898 -0.0125822 0.000999992 312.656 
112 1 0.0274126 -0.0122056 0.000999996 316.194 
75 1 0.0305709 -0.0120006 0.000999993 314.916 
44 1 0.0325472 -0.012308 0.000999993 310.049 
903 1 0.0346614 -0.0124727 0.000999987 319.607 
501 1 0.0399655 -0.0125406 0.000999994 317.034 
606 1 0.0381813 -0.0121244 0.00200969 331.861 
895 1 0.0424953 -0.0112468 0.000999991 321.428 
98 1 0.0440827 -0.0124633 0.000999998 309.389 
591 1 0.046362 -0.0121898 0.000999998 300 
260 1 0.0483399 -0.0113954 0.000999988 317.713 
341 1 0.00236835 -0.00912792 0.000999989 307.59 
781 1 0.00434315 -0.00962605 0.00099999 312.581 
163 1 0.00630249 -0.00922482 0.000999992 316.77 
180 1 0.00969329 -0.0104144 0.00207298 344.085 
657 1 0.0113778 -0.0106424 0.000999994 315.595 
479 1 0.0130888 -0.00957115 0.00099999 325.399 
1334 1 0.0156328 -0.00933789 0.000999989 332.603 
236 1 0.0173021 -0.0105161 0.00100003 327.173 
463 1 0.0189969 -0.0094543 0.000999987 331.304 
1058 1 0.020961 -0.0109208 0.000999997 309.367 
214 1 0.021988 -0.00920459 0.000999991 331.614 
48 1 0.0236592 -0.010687 0.000999996 321.634 
1001 1 0.0256579 -0.0107646 0.000999989 319.055 
157 1 0.0275721 -0.0101849 0.00099999 336.27 
154 1 0.0295703 -0.010269 0.000999998 333.791 
849 1 0.0316899 -0.010127 0.000999998 305.031 
986 1 0.0337356 -0.0106994 0.000999992 325.627 
352 1 0.0353603 -0.00937906 0.000999998 333.03 
391 1 0.037078 -0.0107965 0.00099999 330.44 
828 1 0.0380495 -0.00904828 0.000999991 343.174 
1302 1 0.0391669 -0.010707 0.000999988 328.321 
1153 1 0.0410033 -0.00991491 0.000999992 333.885 
1029 1 0.0435086 -0.00935559 0.000999995 327.596 
734 1 0.0450013 -0.0106867 0.000999997 313.137 
168 1 0.0467898 -0.0104128 0.001852 327.47 
673 1 0.0479253 -0.00900397 0.000999991 327.403 
230 1 0.00208414 -0.00710001 0.000999993 316.026 
962 1 0.00400567 -0.00765473 0.000999989 322.6 
829 1 0.00807393 -0.0082964 0.000999989 330.237 
409 1 0.0100683 -0.00814704 0.00100015 327.065 
524 1 0.0120481 -0.00786324 0.000999994 322.757 
1221 1 0.0140493 -0.00781584 0.000999998 304.792 
1092 1 0.0173393 -0.0086903 0.00181755 356.178 
461 1 0.016624 -0.00701102 0.000999992 330.402 
1062 1 0.0197951 -0.00762048 0.000999986 351.518 
790 1 0.0215614 -0.00748521 0.00192831 379.225 
200 1 0.0233297 -0.00737885 0.000999993 351.136 
602 1 0.0247258 -0.00899514 0.000999997 318.753 
546 1 0.0254076 -0.0074302 0.00204216 326.796 
1240 1 0.0269157 -0.00822994 0.000999998 309.953 
247 1 0.0292594 -0.00829331 0.00099999 348.427 
973 1 0.0315646 -0.00811889 0.00099999 335.769 
1319 1 0.0334732 -0.00871669 0.000999992 336.133 
947 1 0.0365133 -0.00779137 0.00138712 317.43 
238 1 0.0398083 -0.00744564 0.000999998 325.602 
162 1 0.0418495 -0.00748748 0.000999997 315.799 
367 1 0.0444121 -0.00769988 0.0016651 328.308 
1274 1 0.0459344 -0.00881346 0.000999986 340.967 
1074 1 0.0498514 -0.00837776 0.000999998 300 
28 1 0.0010002 -0.00541922 0.000999994 309.273 
956 1 0.00299497 -0.00525851 0.000999998 300 
134 1 0.00500411 -0.00536152 0.000999994 330.418 
825 1 0.00684751 -0.00671657 0.000999995 328.579 
976 1 0.00894151 -0.00649438 0.000999994 341.016 
169 1 0.0109715 -0.00601028 0.000999993 339.961 
556 1 0.0129962 -0.00610228 0.000999995 341.16 
421 1 0.0149261 -0.00609382 0.001525 346.466 
1217 1 0.0184323 -0.00615665 0.000999998 335.09 
1325 1 0.0210605 -0.00573693 0.000999998 300 
496 1 0.0230199 -0.00528279 0.000999996 355.996 
639 1 0.024956 -0.005784 0.00099999 351.841 
1151 1 0.0269057 -0.0062297 0.000999984 351.815 
443 1 0.0289805 -0.00545077 0.000999998 300 
1231 1 0.0310306 -0.00545219 0.000999998 300 
146 1 0.0303193 -0.00698151 0.00207498 376.845 
1290 1 0.0330366 -0.00676492 0.000999997 326.007 
1075 1 0.0353259 -0.00621403 0.000999995 326.25 
618 1 0.038025 -0.00654034 0.000999998 307.564 
83 1 0.0399098 -0.00544822 0.000999985 348.865 
974 1 0.0424605 -0.00544572 0.000999991 345.432 
1289 1 0.0449382 -0.00588859 0.000999992 336.584 
772 1 0.0466402 -0.00609637 0.0020296 362.399 
530 1 0.0482999 -0.00652692 0.000999994 329.557 
283 1 0.00371064 -0.00338744 0.000999998 300 
750 1 0.00569461 -0.00311857 0.000999998 300.004 
234 1 0.00689912 -0.00471724 0.000999994 341.087 
1025 1 0.00808673 -0.00310791 0.000999998 300 
139 1 0.00957669 -0.00451693 0.000999998 300 
791 1 0.0119528 -0.0041857 0.000999985 355.678 
402 1 0.0153626 -0.004214 0.000999994 341.436 
1087 1 0.017357 -0.00447035 0.000999991 350.452 
519 1 0.0193899 -0.00431182 0.000999993 356.19 
275 1 0.0216938 -0.00378558 0.000999994 341.195 
142 1 0.0249492 -0.00393316 0.00175782 372.407 
90 1 0.0267754 -0.00423396 0.000999996 344.447 
492 1 0.032699 -0.00434362 0.000999993 334.479 
749 1 0.0350091 -0.00423928 0.000999994 338.646 
1187 1 0.0369358 -0.00484893 0.000999997 319.335 
175 1 0.0402006 -0.00358298 0.00166048 363.434 
1050 1 0.0420853 -0.00347573 0.000999995 326.829 
846 1 0.0439728 -0.00413701 0.000999988 337.193 
424 1 0.0456873 -0.00431841 0.00201368 344.1 
1243 1 0.0474114 -0.00430605 0.000999998 326.332 
3721 1 0.0493439 -0.00482097 0.000999988 323.459 
77 1 0.00106446 -0.00207629 0.000999998 300 
37 1 0.00269634 -0.00135299 0.00200246 339.637 
1108 1 0.00442621 -0.00130241 0.000999983 337.983 
385 1 0.0074663 -0.0011745 0.000999988 344.49 
89 1 0.0100508 -0.00255555 0.000999998 300 
318 1 0.0118586 -0.00167902 0.000999998 326.866 
32 1 0.0138228 -0.00205531 0.000999998 323.779 
964 1 0.0158217 -0.00212183 0.000999998 318.03 
1180 1 0.0177825 -0.00251614 0.000999993 337.416 
885 1 0.0201852 -0.00247261 0.000999997 344.335 
264 1 0.0220832 -0.00158202 0.000999986 367.002 
258 1 0.0241116 -0.00228266 0.001 376.594 
291 1 0.0258098 -0.00110755 0.000999998 329.961 
1052 1 0.0282802 -0.00291658 0.000999992 364.192 
486 1 0.0304223 -0.00274938 0.000999993 348.436 
401 1 0.0328101 -0.00186878 0.000999996 324.592 
91 1 0.0348112 -0.00186302 0.00099999 339.149 
1248 1 0.0364864 -0.00291987 0.00127711 327.749 
1196 1 0.0384654 -0.00283657 0.000999995 324.731 
351 1 0.0409167 -0.00183629 0.000999995 333.533 
1003 1 0.0429073 -0.00158971 0.000999997 324.658 
545 1 0.0452833 -0.00262575 0.000999997 329.382 
31 1 0.0472197 -0.00212533 0.000999991 322.276 
1027 1 0.0491105 -0.00283465 0.000999996 308.035 
620 1 0.00150677 0.000624044 0.000999984 318.572 
817 1 0.00370977 0.000569619 0.000999998 300 
127 1 0.00591125 -0.000406584 0.00199601 372.534 
306 1 0.00756563 0.000823028 0.000999994 324.773 
167 1 0.00960301 -0.000600847 0.000999992 347.21 
721 1 0.0132144 -0.000384327 0.00191523 389.567 
33 1 0.0157868 -0.000111421 0.000999998 300 
522 1 0.0178037 -0.000350173 0.000999998 300 
1330 1 0.0201726 -0.000472056 0.000999998 300 
624 1 0.0239822 -0.000286865 0.000999988 361.596 
799 1 0.0222849 0.000162791 0.00195755 396.551 
644 1 0.0278053 -0.000973797 0.000999988 370.308 
181 1 0.0267602 0.000746175 0.000999994 363.24 
289 1 0.0300684 -0.000444246 0.000999989 350.989 
899 1 0.0320249 -2.93762e-05 0.000999997 321.288 
184 1 0.0341146 1.68857e-05 0.000999998 304.089 
1191 1 0.0369446 -0.000988235 0.000999998 310.256 
625 1 0.0395874 -0.000291075 0.000999998 317.1 
250 1 0.0417007 7.81935e-06 0.000999996 329.745 
1247 1 0.0440456 0.000574415 0.000999991 334.74 
518 1 0.045939 -0.000588995 0.000999992 337.62 
198 1 0.0476838 0.000898637 0.000999998 300 
527 1 0.0488465 -0.000852146 0.000999995 312.264 
904 1 0.0494914 0.00083641 0.00185608 334.957 
305 1 0.00264916 0.00226565 0.00100002 324.122 
408 1 0.00557638 0.00129512 0.000999993 342.668 
1037 1 0.00643218 0.00282586 0.00196146 362.929 
1054 1 0.00968458 0.00225442 0.000999996 323.023 
310 1 0.0118961 0.00105158 0.000999998 308.664 
364 1 0.0129022 0.00293552 0.000999998 314.922 
392 1 0.0139525 0.00123354 0.000999991 345.915 
430 1 0.0169059 0.00174167 0.000999993 348.076 
723 1 0.018996 0.00172789 0.000999992 342.885 
279 1 0.0209923 0.00135248 0.000999998 300 
1099 1 0.0248586 0.00295496 0.000999993 356.639 
1044 1 0.0241312 0.00141222 0.00204443 410.268 
1226 1 0.0268526 0.0027672 0.000999989 375.565 
474 1 0.0285332 0.00167963 0.000999992 351.199 
1175 1 0.0304799 0.00146998 0.0014079 363.506 
280 1 0.033244 0.00181831 0.000999998 310.903 
476 1 0.0350733 0.0024588 0.0014934 343.151 
735 1 0.0363974 0.00104339 0.000999985 356.398 
311 1 0.0384834 0.00158561 0.000999987 354.125 
562 1 0.0405308 0.00178272 0.000999989 342.043 
197 1 0.0425283 0.0018813 0.000999995 324.904 
615 1 0.0443907 0.00261031 0.000999986 337.117 
568 1 0.0458138 0.00132471 0.00156747 361.43 
1197 1 0.0497082 0.00263088 0.000999994 332.359 
366 1 0.00100063 0.00383724 0.000999997 305.719 
920 1 0.0043839 0.00326097 0.00099999 325.643 
1036 1 0.00644525 0.00457953 0.000999989 325.965 
314 1 0.00844678 0.00420298 0.000999998 300 
1224 1 0.0104826 0.00408961 0.000999992 334.488 
1124 1 0.0123036 0.0049164 0.000999992 341.312 
1286 1 0.0152051 0.00422662 0.000999983 351.725 
972 1 0.0186014 0.00369399 0.000999996 326.134 
493 1 0.0202753 0.0030119 0.00185588 391.6 
939 1 0.02075 0.00475605 0.000999988 363.028 
923 1 0.0220823 0.00307749 0.000999993 352.884 
241 1 0.0235323 0.00445514 0.00099999 364.742 
322 1 0.0254857 0.00479463 0.00147149 371.662 
485 1 0.0274261 0.00468323 0.000999995 350.435 
814 1 0.0294225 0.00456453 0.000999989 356.72 
1229 1 0.031651 0.00303909 0.000999991 348.574 
879 1 0.0329324 0.00472647 0.000999998 300 
1019 1 0.0354244 0.00436559 0.000999992 341.647 
26 1 0.0374497 0.00408386 0.000999998 300 
946 1 0.0393304 0.00340354 0.000999998 312.094 
1314 1 0.041438 0.0035651 0.000999997 327.774 
300 1 0.0429164 0.00497018 0.000999991 333.914 
757 1 0.0450353 0.00455743 0.000999996 324 
121 1 0.0464429 0.00313648 0.000999998 300 
2899 1 0.0491937 0.0045982 0.000999981 340.326 
235 1 0.0481355 0.00327053 0.00205706 367.715 
852 1 0.00147344 0.00578054 0.000999994 303.868 
143 1 0.00359123 0.00509717 0.000999997 319.022 
712 1 0.00611097 0.00655139 0.000999995 317.254 
857 1 0.00765647 0.00583318 0.0020467 334.329 
156 1 0.0101028 0.00606717 0.000999991 331.405 
733 1 0.0125017 0.00690655 0.000999988 339.235 
761 1 0.0142906 0.00601069 0.000999998 300 
1306 1 0.0170989 0.00501409 0.000999991 336.468 
1285 1 0.0165014 0.00696642 0.000999998 307.67 
237 1 0.0189814 0.0056897 0.000999997 332.528 
621 1 0.0222928 0.00602882 0.00099999 348.896 
1134 1 0.0242725 0.00631312 0.000999989 353.259 
1154 1 0.028986 0.0067722 0.000999991 354.393 
332 1 0.0310772 0.00569306 0.000999998 300 
404 1 0.0326452 0.00696578 0.000999994 335.738 
1299 1 0.0344553 0.0061151 0.000999994 333.916 
1088 1 0.0366774 0.00592881 0.000999988 365.279 
54 1 0.0390828 0.00538836 0.000999994 331.8 
176 1 0.0410339 0.00582837 0.000999992 327.416 
544 1 0.0455163 0.00651378 0.000999998 300 
469 1 0.0472716 0.00515104 0.000999995 318.637 
14 1 0.0486979 0.00655309 0.000999996 323.324 
741 1 0.000999996 0.00772368 0.00100003 303.429 
187 1 0.00278473 0.00862649 0.000999991 306.81 
540 1 0.00401709 0.00705129 0.000999987 313.388 
193 1 0.00477673 0.00895848 0.000999998 300 
253 1 0.0068207 0.00842122 0.000999996 312.579 
959 1 0.00850773 0.00730957 0.000999992 320.304 
328 1 0.0114072 0.00885123 0.000999998 300 
718 1 0.0132987 0.00844915 0.0019926 340.618 
978 1 0.0151909 0.00848408 0.000999991 333.561 
488 1 0.0171399 0.00893312 0.000999991 329.101 
847 1 0.0186891 0.00766823 0.000999992 335.247 
473 1 0.0206945 0.00740131 0.000999998 300 
854 1 0.0226507 0.00799697 0.000999991 354.063 
207 1 0.0263751 0.00739619 0.000999998 300.208 
513 1 0.0293352 0.00896057 0.00151575 330.438 
651 1 0.0307733 0.00766986 0.000999989 337.773 
1298 1 0.0326488 0.00875108 0.00190147 329.885 
1244 1 0.0353883 0.00770327 0.00177925 367.448 
611 1 0.0372176 0.00791835 0.000999986 339.174 
730 1 0.0393592 0.00754754 0.000999997 326.27 
835 1 0.0417267 0.00744182 0.00195747 370.123 
110 1 0.0436805 0.00766014 0.000999996 324.142 
428 1 0.0469194 0.00795518 0.000999997 303.904 
174 1 0.0497579 0.00825521 0.000999987 332.293 
205 1 0.00100021 0.00991911 0.000999985 302.264 
177 1 0.00272024 0.0104073 0.001908 304.354 
674 1 0.00638342 0.0103728 0.000999989 309.25 
79 1 0.00942032 0.00908922 0.000999998 316.219 
1320 1 0.0104938 0.0103921 0.00207241 325.31 
779 1 0.012119 0.0108494 0.00100017 318.06 
292 1 0.0139551 0.0100566 0.000999991 324.295 
11 1 0.015904 0.0105056 0.00099999 322.961 
50 1 0.0188973 0.00950435 0.00176508 321.533 
1042 1 0.0207436 0.00942881 0.000999998 305.808 
694 1 0.0226224 0.0101149 0.000999989 336.431 
147 1 0.0240051 0.00907428 0.00200252 371.361 
983 1 0.0256274 0.00967679 0.000999989 333.219 
798 1 0.0278229 0.0101635 0.000999996 312.813 
966 1 0.0311269 0.00968438 0.000999995 316.465 
1186 1 0.033815 0.0102344 0.000999995 321.96 
1091 1 0.035782 0.00950263 0.000999993 335.208 
93 1 0.0382867 0.00960858 0.000999998 327.291 
1160 1 0.0399631 0.0106994 0.000999988 312.562 
575 1 0.0411762 0.00910919 0.00099999 328.342 
985 1 0.04312 0.00957997 0.000999996 312.99 
359 1 0.0453271 0.00941899 0.000999995 318.337 
969 1 0.0472618 0.00992566 0.000999998 306.72 
78 1 0.0492059 0.0103951 0.000999992 306.567 
363 1 0.000999994 0.0125472 0.000999995 300.527 
811 1 0.00296408 0.0122886 0.00127469 301.932 
743 1 0.00449491 0.0110312 0.000999993 303.32 
1251 1 0.00600936 0.0123375 0.000999995 302.883 
72 1 0.009055 0.0112752 0.000999994 309.003 
1313 1 0.0110293 0.0125265 0.00099999 308.327 
654 1 0.0139151 0.0120596 0.000999989 316.664 
271 1 0.0178306 0.0110468 0.000999998 300 
15 1 0.0191506 0.0123316 0.00178965 315.715 
215 1 0.0208644 0.0116686 0.00099999 317.746 
420 1 0.0226323 0.0118976 0.00190669 323.534 
449 1 0.0244554 0.012149 0.000999998 307.605 
39 1 0.0263672 0.0115349 0.000999992 315.093 
188 1 0.0295985 0.0111181 0.000999991 322.182 
425 1 0.028129 0.0124814 0.000999992 306.952 
1095 1 0.0312193 0.01229 0.000999998 300.001 
1227 1 0.033219 0.0122468 0.000999995 310.922 
119 1 0.0353449 0.0122914 0.000999998 300 
650 1 0.0369685 0.0111127 0.000999989 321.599 
1138 1 0.0386186 0.0122428 0.000999992 313.676 
979 1 0.0405124 0.0124274 0.00184388 319.822 
316 1 0.0424182 0.0117034 0.000999998 303.379 
1297 1 0.0443447 0.0111611 0.00099999 315.19 
1206 1 0.046545 0.0118446 0.000999993 309.854 
380 1 0.0484365 0.0121497 0.00157368 303.669 
347 1 0.00209295 0.014 0.00183359 300.505 
309 1 0.00396196 0.014 0.000999998 300.752 
1130 1 0.00566062 0.014 0.00205571 302.165 
807 1 0.00735927 0.014 0.000999991 301.681 
114 1 0.00931258 0.0135525 0.000999993 303.169 
240 1 0.0123816 0.014 0.000999997 303.961 
672 1 0.0144052 0.014 0.000999998 302.85 
729 1 0.0161846 0.014 0.00191321 310.838 
758 1 0.0179409 0.0137147 0.000999996 306.883 
1038 1 0.0199206 0.014 0.000999993 306.093 
81 1 0.0217812 0.0139926 0.00173331 311.487 
676 1 0.0236419 0.0139761 0.000999994 305.915 
534 1 0.0264775 0.0137776 0.000999998 300 
526 1 0.0299137 0.014 0.000999997 301.9 
101 1 0.0322566 0.014 0.000999994 306.069 
1304 1 0.0342566 0.014 0.00099999 307.829 
1171 1 0.0370659 0.0139108 0.000999998 300 
442 1 0.0396097 0.014 0.000999989 309.582 
348 1 0.0423188 0.0137128 0.000999998 300 
626 1 0.0443208 0.014 0.000999994 302.81 
935 1 0.0466505 0.0139485 0.000999998 300 
766 1 0.0489339 0.014 0.000999995 302.138 
728 1 0.00392052 -0.014 0.00238429 304.882 
1249 1 0.00256444 -0.0132265 0.00363435 311.931 
929 1 0.00450257 -0.0131416 0.00412055 320.756 
1137 1 0.00634469 -0.014 0.00274303 309.999 
1097 1 0.0078871 -0.0133954 0.0038635 329.107 
598 1 0.0095839 -0.014 0.0029944 318.608 
1056 1 0.0115791 -0.014 0.0031329 320.242 
747 1 0.0135702 -0.014 0.00294461 311.529 
1337 1 0.0162623 -0.0135725 0.00273454 306.628 
789 1 0.0184969 -0.014 0.00263796 321.429 
894 1 0.0203583 -0.014 0.00336963 322.4 
507 1 0.0220847 -0.0132262 0.00272104 319.948 
170 1 0.0250702 -0.014 0.00238244 313.286 
993 1 0.0240141 -0.0139722 0.00408059 336.499 
1048 1 0.0275175 -0.0134232 0.00263438 324.546 
1267 1 0.0262053 -0.014 0.00402915 309.942 
43 1 0.0295 -0.014 0.00274091 315.934 
1169 1 0.0312288 -0.014 0.00374657 333.732 
1008 1 0.0331407 -0.0134146 0.0037886 323.241 
1168 1 0.0342309 -0.014 0.00221734 313.442 
288 1 0.0350354 -0.014 0.00404837 323.074 
158 1 0.0375146 -0.014 0.00317125 305.709 
47 1 0.0406544 -0.0133617 0.00269294 328.143 
274 1 0.0425983 -0.014 0.00386091 323.125 
652 1 0.0441287 -0.014 0.00257328 312.907 
689 1 0.0463276 -0.014 0.00275222 308.144 
1184 1 0.0483371 -0.014 0.00274697 307.579 
1026 1 0.000999991 -0.0126891 0.00251021 305.119 
261 1 0.000999995 -0.011326 0.00397369 309.975 
1343 1 0.00301409 -0.0113076 0.00397475 324.654 
87 1 0.00423913 -0.0120312 0.0022356 305.731 
355 1 0.00504244 -0.0112267 0.00391614 334.997 
1208 1 0.00656471 -0.0120234 0.00253146 308.044 
22 1 0.00843274 -0.011079 0.00371936 346.637 
378 1 0.0101037 -0.0120919 0.00329275 329.008 
1220 1 0.0128444 -0.012285 0.00367402 324.843 
4 1 0.0145348 -0.0124065 0.00221646 313.906 
336 1 0.015519 -0.0118383 0.00386221 320.207 
622 1 0.0176585 -0.0122282 0.00224094 312.286 
1077 1 0.0174136 -0.0112732 0.00416425 346.683 
736 1 0.0189909 -0.012447 0.00379728 366.721 
681 1 0.0203697 -0.0122626 0.00236006 309.159 
859 1 0.022665 -0.0115618 0.00410205 359.155 
806 1 0.0239103 -0.0124121 0.00278814 337.808 
1152 1 0.0260548 -0.0120702 0.00246214 336.161 
999 1 0.0279366 -0.0119296 0.00389669 341.179 
1316 1 0.0289735 -0.011821 0.0021899 332.679 
797 1 0.029953 -0.0124734 0.00395094 337.944 
1264 1 0.0315301 -0.0122716 0.00273395 311.118 
20 1 0.0336445 -0.0118753 0.00261523 347.716 
1336 1 0.0350723 -0.0118548 0.00401562 337.502 
1126 1 0.0354465 -0.0110244 0.00213404 335.84 
233 1 0.0359508 -0.0129117 0.00256269 312.275 
450 1 0.0369507 -0.0113847 0.00340195 345.44 
160 1 0.0392319 -0.0123737 0.00369314 360.94 
724 1 0.0409925 -0.0114286 0.00230715 343.2 
876 1 0.0419024 -0.0120667 0.00396995 357.233 
872 1 0.0425493 -0.0128203 0.00223337 309.91 
704 1 0.0449215 -0.0120423 0.00276611 317.062 
945 1 0.0469145 -0.0120959 0.00292509 325.888 
221 1 0.0489219 -0.0120878 0.00278378 327.842 
1245 1 0.000999993 -0.00928449 0.00395345 315.824 
744 1 0.00199872 -0.0103191 0.00256345 314.521 
635 1 0.00390569 -0.00984746 0.00293895 328.664 
136 1 0.00590224 -0.00974057 0.00289044 336.578 
418 1 0.00782929 -0.00974667 0.00235529 338.109 
1057 1 0.0112144 -0.00913699 0.00230648 337.764 
259 1 0.0102857 -0.010154 0.00396539 378.992 
1318 1 0.0125372 -0.0106075 0.00262928 354.195 
725 1 0.0121185 -0.00937428 0.00414712 411.888 
1205 1 0.0144017 -0.00990101 0.00247217 364.708 
422 1 0.0163222 -0.0103914 0.00273907 338.868 
924 1 0.0183927 -0.0103733 0.00267041 352.71 
395 1 0.0200087 -0.0107212 0.00379621 357.726 
1195 1 0.0205045 -0.00947314 0.00231414 336.127 
500 1 0.0225748 -0.0102262 0.0026161 347.845 
213 1 0.0246572 -0.0105577 0.00272838 338.506 
909 1 0.0263344 -0.0095128 0.00242 366.023 
740 1 0.0265318 -0.0105259 0.00413308 384.067 
521 1 0.0284821 -0.00929895 0.00254496 382.397 
997 1 0.0297075 -0.0105331 0.00353251 373.183 
445 1 0.0304806 -0.00911342 0.00235493 367.298 
1261 1 0.0322714 -0.0104207 0.00289093 319.353 
529 1 0.0340991 -0.00964259 0.00265859 359.451 
277 1 0.0355513 -0.00991304 0.00402491 386.392 
124 1 0.0367214 -0.00947922 0.002462 377.019 
960 1 0.0385169 -0.0102744 0.00284128 364.803 
510 1 0.0401572 -0.0106169 0.00393302 407.163 
533 1 0.0434256 -0.0107171 0.00268929 348.32 
552 1 0.044975 -0.00945352 0.0026339 385.609 
697 1 0.0458235 -0.0106606 0.00398403 397.868 
440 1 0.0475928 -0.00981798 0.00358448 369.116 
1021 1 0.0490805 -0.0100354 0.00226562 348.174 
95 1 0.0495155 -0.0105984 0.00413479 377.441 
564 1 0.00099999 -0.00828587 0.00219099 313.262 
1178 1 0.00294431 -0.00812116 0.0026297 319.088 
1005 1 0.00493772 -0.00799531 0.00273643 351.915 
284 1 0.00642498 -0.00807971 0.00407095 374.924 
27 1 0.00807073 -0.00718883 0.00266529 377.129 
344 1 0.00938651 -0.00866083 0.00298457 367.59 
455 1 0.0105623 -0.00708018 0.00263943 383.35 
636 1 0.0124312 -0.00770239 0.00298568 378.54 
1006 1 0.0139625 -0.00858986 0.00391714 413.804 
457 1 0.0154895 -0.00790228 0.00238508 319.158 
719 1 0.0174886 -0.00898444 0.00379015 398.851 
970 1 0.0173748 -0.00710733 0.00303941 375.599 
179 1 0.019032 -0.00819104 0.00275844 384.599 
138 1 0.0218439 -0.00861733 0.00355266 399.847 
818 1 0.0203462 -0.00738063 0.00402971 444.324 
246 1 0.0236322 -0.00852863 0.00260825 349.402 
52 1 0.0251761 -0.00874884 0.00386041 398.563 
788 1 0.0270982 -0.00816529 0.00368523 403.28 
988 1 0.028116 -0.00722336 0.00224411 389.26 
490 1 0.0294674 -0.00792801 0.00361716 420.628 
84 1 0.031579 -0.00882185 0.0040007 443.655 
574 1 0.0326897 -0.00787248 0.00263506 371.363 
1270 1 0.0346324 -0.00763772 0.00222151 364.37 
890 1 0.0361877 -0.00783246 0.00346367 429.963 
51 1 0.0380266 -0.00798128 0.00269142 412.129 
631 1 0.0399048 -0.00892272 0.00234495 338.141 
96 1 0.0393912 -0.00787195 0.00414942 488.629 
511 1 0.0410111 -0.00732224 0.00280826 359.03 
466 1 0.041122 -0.00887299 0.00410041 488.476 
1303 1 0.0421003 -0.00893786 0.00235721 385.824 
958 1 0.0436162 -0.00824038 0.00345969 432.009 
801 1 0.0466159 -0.00823817 0.00279014 390.37 
12 1 0.0485517 -0.00783185 0.00249456 361.226 
1322 1 0.00166231 -0.00652449 0.00286836 332.574 
1341 1 0.00396419 -0.00627271 0.00244508 343.224 
558 1 0.00510905 -0.00651309 0.00406821 394.842 
1255 1 0.00617585 -0.0056989 0.0025853 361.106 
56 1 0.00920399 -0.00554256 0.00273928 399.23 
1328 1 0.0124008 -0.00589791 0.00386145 463.864 
981 1 0.0141383 -0.00669754 0.00326137 390.142 
63 1 0.016488 -0.00538171 0.00255375 396.973 
942 1 0.0197866 -0.00626282 0.00246853 412.925 
1115 1 0.0187325 -0.00616465 0.0041654 478.486 
394 1 0.0204476 -0.00512481 0.00397452 416.505 
433 1 0.0221624 -0.00664013 0.00363846 459.918 
1004 1 0.0238057 -0.00623755 0.0025719 398.573 
957 1 0.0256907 -0.00562412 0.0028533 364.384 
436 1 0.0276169 -0.00518118 0.0025475 409.525 
769 1 0.0283152 -0.00634638 0.0040305 473.468 
141 1 0.0300155 -0.00540323 0.00326521 430.798 
59 1 0.0319484 -0.00601689 0.00271977 386.311 
104 1 0.0339034 -0.00541545 0.00219479 358.334 
489 1 0.0353605 -0.00612222 0.00408883 444.871 
1166 1 0.0366481 -0.00613693 0.00250276 327.872 
58 1 0.0378524 -0.00653306 0.00405974 458.424 
593 1 0.0392466 -0.00639765 0.00263055 384.705 
897 1 0.041185 -0.00533196 0.00253628 398.39 
1 1 0.0428685 -0.00661072 0.0025736 378.93 
759 1 0.0446992 -0.00576291 0.00298167 392.115 
396 1 0.0462771 -0.0066257 0.00392378 439.685 
1234 1 0.0482705 -0.00512445 0.00266 362.941 
3839 1 0.0498275 -0.00635211 0.00292208 392.194 
539 1 0.000999991 -0.00463755 0.00284091 321.753 
502 1 0.0028692 -0.00496099 0.00348449 340.809 
1090 1 0.00241806 -0.00326162 0.00253127 332.198 
666 1 0.00465322 -0.00440221 0.00271947 349.227 
102 1 0.00755571 -0.00396157 0.00273142 392.141 
263 1 0.00952789 -0.00357948 0.00294262 428.016 
659 1 0.0111076 -0.00492458 0.00267413 366.917 
61 1 0.0132155 -0.00474062 0.00244835 393.954 
701 1 0.014857 -0.00485586 0.003585 441.953 
968 1 0.0144952 -0.00320426 0.00249262 394.219 
949 1 0.0164875 -0.00336364 0.00242094 380.885 
815 1 0.0184075 -0.00482756 0.00266398 403.326 
941 1 0.0219151 -0.00493099 0.00262965 395.022 
793 1 0.0203805 -0.00364863 0.00260586 403.26 
371 1 0.0217992 -0.00348212 0.00400576 507.991 
437 1 0.0237219 -0.00436751 0.00327611 391.299 
232 1 0.0256883 -0.00374046 0.00360621 426.304 
1053 1 0.0274331 -0.0032043 0.00278871 383.769 
1113 1 0.0294168 -0.00367225 0.0024619 420.154 
239 1 0.0285386 -0.00436099 0.00412155 506.169 
125 1 0.0313661 -0.00411936 0.00247416 383.192 
503 1 0.0305202 -0.00320882 0.00406428 487.294 
685 1 0.0338027 -0.00315327 0.00216831 351.764 
1183 1 0.0329001 -0.00455259 0.00369441 379.822 
607 1 0.0355435 -0.00451931 0.00290681 405.776 
670 1 0.0344352 -0.0033252 0.00406679 489.303 
337 1 0.0372277 -0.00348272 0.00320522 413.753 
1129 1 0.0385362 -0.00458563 0.00217014 369.64 
731 1 0.0397943 -0.0039422 0.00358553 466.439 
571 1 0.0429846 -0.00447594 0.00270542 359.452 
971 1 0.0428698 -0.00304037 0.00409671 469.322 
708 1 0.0447234 -0.00389631 0.00371446 391.434 
886 1 0.0466457 -0.00466918 0.00373368 362.791 
1181 1 0.0478672 -0.0031672 0.00257964 360.626 
7 1 0.000999995 -0.00224926 0.00351349 335.45 
194 1 0.00444504 -0.00241389 0.00266259 373.128 
824 1 0.00663811 -0.002199 0.00250483 380.436 
850 1 0.00789364 -0.0024833 0.00403545 399.657 
520 1 0.00878403 -0.00181657 0.00236061 390.381 
1122 1 0.011365 -0.00295271 0.00246086 402.033 
1071 1 0.0110248 -0.00157098 0.0038662 457.652 
1326 1 0.0128951 -0.00189142 0.00319063 416.632 
592 1 0.0149515 -0.00128289 0.00280888 408.733 
251 1 0.0169801 -0.001426 0.00247444 374.122 
702 1 0.0161354 -0.00228746 0.00406953 370.923 
1149 1 0.0180125 -0.00280077 0.00358607 448.642 
379 1 0.0189674 -0.00158635 0.00231587 379.565 
1284 1 0.0210353 -0.00176092 0.00269408 427.544 
794 1 0.0227832 -0.00284188 0.00238658 414.935 
448 1 0.0225297 -0.0013417 0.0039554 482.374 
1114 1 0.0242126 -0.00239472 0.00371208 487.372 
1335 1 0.0270199 -0.00120829 0.00282432 466.643 
687 1 0.0291767 -0.00168212 0.00229324 414.67 
753 1 0.0287052 -0.00236798 0.00411184 512.75 
628 1 0.0312942 -0.00143576 0.00223057 351.706 
937 1 0.0323336 -0.00265285 0.00342984 426.501 
637 1 0.0355118 -0.00215918 0.00284971 405.432 
998 1 0.0373732 -0.001489 0.00314284 389.68 
128 1 0.0393168 -0.00208354 0.00264561 363.868 
871 1 0.0411969 -0.00260098 0.00308983 341.216 
992 1 0.0426257 -0.00120919 0.00294356 359.381 
587 1 0.0438385 -0.00269671 0.00238109 380.831 
710 1 0.0445866 -0.00189194 0.0040522 460.057 
512 1 0.0461727 -0.00207084 0.00270327 323.334 
21 1 0.0478069 -0.00170423 0.00394202 432.372 
1170 1 0.0495766 -0.00258666 0.00344025 391.341 
822 1 0.000999987 -0.000473589 0.00259319 325.143 
109 1 0.0024542 -0.000832872 0.00391839 370.929 
528 1 0.00578114 -0.000842966 0.00394346 443.302 
242 1 0.00411277 -0.000225061 0.00285187 351.097 
144 1 0.00763281 -0.000245222 0.00300108 388.08 
1192 1 0.00914761 -0.000927255 0.00411472 441.043 
419 1 0.00945075 0.000512878 0.0026542 389.819 
412 1 0.0112445 -0.000305026 0.0023172 334.465 
1076 1 0.0126516 8.42538e-06 0.00379379 447.338 
62 1 0.0149188 0.000712616 0.0026792 413.239 
296 1 0.0169126 0.000567618 0.00261911 408.85 
1125 1 0.0179476 -0.000535511 0.00398153 436.626 
229 1 0.0189022 0.000404401 0.0024965 405.528 
1121 1 0.0207436 0.000143193 0.00323189 430.666 
1269 1 0.0233602 0.000450973 0.00361969 486.808 
182 1 0.0248598 -0.000777839 0.00272881 370.768 
438 1 0.0259157 0.000919027 0.00280466 454.183 
1194 1 0.0286065 0.000232978 0.00237905 411.62 
896 1 0.0318096 -0.000830484 0.00406577 473.815 
1030 1 0.0305119 0.000242498 0.00298658 414.994 
334 1 0.033172 -0.000725086 0.00260031 319.916 
19 1 0.0356439 -0.00022773 0.00234772 404.79 
65 1 0.0377027 0.000305464 0.00232351 379.777 
1120 1 0.0390534 -0.000489579 0.00382456 441.98 
1079 1 0.0395763 0.00096548 0.00255594 377.127 
1268 1 0.0407291 -0.00066785 0.0026123 371.733 
267 1 0.0425149 0.000767667 0.00266122 360.8 
307 1 0.0436758 2.84904e-05 0.00411238 466.357 
640 1 0.0445885 -0.000664407 0.00247324 390.776 
1235 1 0.0459945 0.000434349 0.00337651 368.505 
559 1 0.0474154 -0.000541395 0.0023621 323.357 
70 1 0.0493083 -0.000516063 0.00336394 379.737 
777 1 0.000999995 0.00110825 0.00381703 323.638 
471 1 0.000999996 0.00219067 0.00213525 316.919 
1043 1 0.00259936 0.0010612 0.00261711 342.565 
1165 1 0.0043985 0.00192522 0.00248846 362.969 
1342 1 0.00615918 0.00122393 0.00312734 381.745 
948 1 0.00824989 0.00209418 0.00238418 351.277 
73 1 0.00954494 0.00198347 0.0040064 421.024 
505 1 0.0109079 0.00187772 0.00253671 343.043 
921 1 0.0128894 0.00162969 0.00264707 346.791 
698 1 0.0148031 0.00263621 0.00214408 386.924 
542 1 0.0161275 0.00214771 0.00356089 393 
202 1 0.0179548 0.00149021 0.00405531 470.878 
1312 1 0.0198177 0.00190183 0.00345535 454.627 
1100 1 0.0218928 0.00199069 0.0026682 428.321 
902 1 0.024654 0.0020511 0.00386609 473.723 
715 1 0.0275718 0.00203697 0.00271739 445.792 
209 1 0.0292263 0.00157551 0.00374179 471.578 
68 1 0.030945 0.00242399 0.00317064 407.881 
189 1 0.0323332 0.0010903 0.00262827 359.75 
122 1 0.0331342 0.00221269 0.00408336 409.378 
1112 1 0.0343195 0.0011875 0.00284081 372.983 
1259 1 0.0371473 0.00244187 0.00221728 400.947 
570 1 0.0366618 0.0011466 0.00380976 456.219 
1070 1 0.0392343 0.0028996 0.00293307 350.119 