ITEM: TIMESTEP
0
ITEM: NUMBER OF ATOMS
2500
ITEM: BOX BOUNDS pp pp pp
0 1
0 1
0 0
ITEM: ATOMS id x y u v p
1 0.0 0.0 9.748509182827547e-05 2.573826350271702e-06 2.7681002393364906e-05
2 0.02040816326530612 0.0 9.646436228649691e-05 1.1585652828216553e-06 2.9680202715098858e-05
3 0.04081632653061224 0.0 9.549484821036458e-05 -1.3707904145121574e-07 3.1467381631955504e-05
4 0.061224489795918366 0.0 9.456682164454833e-05 -1.294014509767294e-06 3.3034273656085134e-05
5 0.08163265306122448 0.0 9.365056030219421e-05 -2.306478563696146e-06 3.44005529768765e-05
6 0.1020408163265306 0.0 9.27872970351018e-05 -3.1623640097677708e-06 3.5551609471440315e-05
7 0.12244897959183673 0.0 9.192751167574897e-05 -3.866094630211592e-06 3.653016756288707e-05
8 0.14285714285714285 0.0 9.110663086175919e-05 -4.369416274130344e-06 3.731076139956713e-05
9 0.16326530612244897 0.0 9.027300984598696e-05 -4.678964614868164e-06 3.7914811400696635e-05
10 0.18367346938775508 0.0 8.945221634348854e-05 -4.8280926421284676e-06 3.835387178696692e-05
11 0.2040816326530612 0.0 8.861512469593436e-05 -4.7461362555623055e-06 3.864301834255457e-05
12 0.22448979591836732 0.0 8.779061317909509e-05 -4.457542672753334e-06 3.877980634570122e-05
13 0.24489795918367346 0.0 8.69549039634876e-05 -3.92028596252203e-06 3.876525443047285e-05
14 0.26530612244897955 0.0 8.609711221652105e-05 -3.1659146770834923e-06 3.866295446641743e-05
15 0.2857142857142857 0.0 8.522553980583325e-05 -2.1515879780054092e-06 3.842567093670368e-05
16 0.3061224489795918 0.0 8.43164962134324e-05 -8.855131454765797e-07 3.8067344576120377e-05
17 0.32653061224489793 0.0 8.338261977769434e-05 6.168847903609276e-07 3.762563574127853e-05
18 0.3469387755102041 0.0 8.240070019382983e-05 2.379470970481634e-06 3.71269416064024e-05
19 0.36734693877551017 0.0 8.140705176629126e-05 4.433037247508764e-06 3.652478335425258e-05
20 0.3877551020408163 0.0 8.032868208829314e-05 6.742426194250584e-06 3.588545951060951e-05
21 0.4081632653061224 0.0 7.926211401354522e-05 9.352690540254116e-06 3.521813778206706e-05
22 0.42857142857142855 0.0 7.810427632648498e-05 1.2264237739145756e-05 3.452625242061913e-05
23 0.44897959183673464 0.0 7.694028317928314e-05 1.5455996617674828e-05 3.3789954613894224e-05
24 0.4693877551020408 0.0 7.570340676466003e-05 1.8933380488306284e-05 3.305455902591348e-05
25 0.4897959183673469 0.0 7.443576032528654e-05 2.2759195417165756e-05 3.232902963645756e-05
26 0.5102040816326531 0.0 7.312337402254343e-05 2.6886234991252422e-05 3.1707430025562644e-05
27 0.5306122448979591 0.0 7.170093158492818e-05 3.125792136415839e-05 3.1088158721104264e-05
28 0.5510204081632653 0.0 7.02904217178002e-05 3.601989010348916e-05 3.053434193134308e-05
29 0.5714285714285714 0.0 6.878704152768478e-05 4.1120045352727175e-05 3.0000286642462015e-05
30 0.5918367346938775 0.0 6.725708226440474e-05 4.650780465453863e-05 2.962519647553563e-05
31 0.6122448979591836 0.0 6.567179661942646e-05 5.216081626713276e-05 2.9397953767329454e-05
32 0.6326530612244897 0.0 6.402519647963345e-05 5.821289960294962e-05 2.9308575903996825e-05
33 0.6530612244897959 0.0 6.236006447579712e-05 6.458250572904944e-05 2.92840413749218e-05
34 0.673469387755102 0.0 6.065391062293202e-05 7.12820328772068e-05 2.950197085738182e-05
35 0.6938775510204082 0.0 5.8884164900518954e-05 7.828138768672943e-05 2.9882066883146763e-05
36 0.7142857142857142 0.0 5.714024882763624e-05 8.563103619962931e-05 3.045456833206117e-05
37 0.7346938775510203 0.0 5.5266384151764214e-05 9.331980254501104e-05 3.125675721094012e-05
38 0.7551020408163265 0.0 5.339794006431475e-05 0.00010138464858755469 3.2372568966820836e-05
39 0.7755102040816326 0.0 5.1547191105782986e-05 0.00010976789053529501 3.364402800798416e-05
40 0.7959183673469387 0.0 4.96365682920441e-05 0.00011846970301121473 3.5313976695761085e-05
41 0.8163265306122448 0.0 4.775600245920941e-05 0.00012751191388815641 3.721693065017462e-05
42 0.836734693877551 0.0 4.581735993269831e-05 0.00013685307931154966 3.9436534279957414e-05
43 0.8571428571428571 0.0 4.392588743939996e-05 0.0001465697423554957 4.203029675409198e-05
44 0.8775510204081632 0.0 4.202978379908018e-05 0.00015658815391361713 4.498221096582711e-05
45 0.8979591836734693 0.0 4.010842530988157e-05 0.00016702210996299982 4.8313377192243934e-05
46 0.9183673469387754 0.0 3.82515718229115e-05 0.00017776928143575788 5.2007962949573994e-05
47 0.9387755102040816 0.0 3.636485416791402e-05 0.00018878333503380418 5.623031756840646e-05
48 0.9591836734693877 0.0 3.46613087458536e-05 0.0002001311513595283 6.0847727581858635e-05
49 0.9795918367346939 0.0 3.290447421022691e-05 0.00021188653772696853 6.595379090867937e-05
50 1.0 0.0 3.1224855774780735e-05 0.00022394955158233643 7.149140583351254e-05
51 0.0 0.02040816326530612 9.086658974410966e-05 8.567527402192354e-06 2.4321983801200986e-05
52 0.02040816326530612 0.02040816326530612 8.99704173207283e-05 7.465132512152195e-06 2.6336900191381574e-05
53 0.04081632653061224 0.02040816326530612 8.911817712942138e-05 6.4506311900913715e-06 2.8156035114079714e-05
54 0.061224489795918366 0.02040816326530612 8.830516890157014e-05 5.5487616918981075e-06 2.976189716719091e-05
55 0.08163265306122448 0.02040816326530612 8.752233406994492e-05 4.748348146677017e-06 3.1155417673289776e-05
56 0.1020408163265306 0.02040816326530612 8.674742275616154e-05 4.09118365496397e-06 3.237678902223706e-05
57 0.12244897959183673 0.02040816326530612 8.599690772825852e-05 3.5660923458635807e-06 3.3408839954063296e-05
58 0.14285714285714285 0.02040816326530612 8.528467151336372e-05 3.191176801919937e-06 3.426912007853389e-05
59 0.16326530612244897 0.02040816326530612 8.454306225758046e-05 2.973596565425396e-06 3.495454438962042e-05
60 0.18367346938775508 0.02040816326530612 8.38243358884938e-05 2.9210932552814484e-06 3.549052053131163e-05
61 0.2040816326530612 0.02040816326530612 8.308581891469657e-05 3.071618266403675e-06 3.586019738577306e-05
62 0.22448979591836732 0.02040816326530612 8.234390406869352e-05 3.383553121238947e-06 3.6090612411499023e-05
63 0.24489795918367346 0.02040816326530612 8.15801540738903e-05 3.910507075488567e-06 3.6194949643686414e-05
64 0.26530612244897955 0.02040816326530612 8.082692511379719e-05 4.614703357219696e-06 3.618805203586817e-05
65 0.2857142857142857 0.02040816326530612 8.001057722140104e-05 5.569192580878735e-06 3.6056298995390534e-05
66 0.3061224489795918 0.02040816326530612 7.917931361589581e-05 6.736081559211016e-06 3.583019133657217e-05
67 0.32653061224489793 0.02040816326530612 7.830701360944659e-05 8.156872354447842e-06 3.551653935573995e-05
68 0.3469387755102041 0.02040816326530612 7.743306196061894e-05 9.770621545612812e-06 3.514986019581556e-05
69 0.36734693877551017 0.02040816326530612 7.647966413060203e-05 1.1630007065832615e-05 3.466563066467643e-05
70 0.3877551020408163 0.02040816326530612 7.551039016107097e-05 1.3802025932818651e-05 3.413337981328368e-05
71 0.4081632653061224 0.02040816326530612 7.448446558555588e-05 1.618574606254697e-05 3.3596588764339685e-05
72 0.42857142857142855 0.02040816326530612 7.341113087022677e-05 1.883681397885084e-05 3.304216079413891e-05
73 0.44897959183673464 0.02040816326530612 7.228722097352147e-05 2.178142312914133e-05 3.245388506911695e-05
74 0.4693877551020408 0.02040816326530612 7.114365871530026e-05 2.4971086531877518e-05 3.1881354516372085e-05
75 0.4897959183673469 0.02040816326530612 6.99205047567375e-05 2.8482172638177872e-05 3.1279021641239524e-05
76 0.5102040816326531 0.02040816326530612 6.866592593723908e-05 3.22827254422009e-05 3.0768627766519785e-05
77 0.5306122448979591 0.02040816326530612 6.732767360517755e-05 3.6312383599579334e-05 3.023270983248949e-05
78 0.5510204081632653 0.02040816326530612 6.598824984394014e-05 4.072126466780901e-05 2.9811286367475986e-05
79 0.5714285714285714 0.02040816326530612 6.453118839999661e-05 4.538032226264477e-05 2.9417453333735466e-05
80 0.5918367346938775 0.02040816326530612 6.30639842711389e-05 5.035958020016551e-05 2.91509204544127e-05
81 0.6122448979591836 0.02040816326530612 6.155340088298544e-05 5.5621378123760223e-05 2.9032817110419273e-05
82 0.6326530612244897 0.02040816326530612 6.002860754961148e-05 6.120541365817189e-05 2.895825309678912e-05
83 0.6530612244897959 0.02040816326530612 5.84299341426231e-05 6.711488822475076e-05 2.9071466997265816e-05
84 0.673469387755102 0.02040816326530612 5.6757133279461414e-05 7.332512177526951e-05 2.9324524803087115e-05
85 0.6938775510204082 0.02040816326530612 5.5146410886663944e-05 7.983885006979108e-05 2.9805494705215096e-05
86 0.7142857142857142 0.02040816326530612 5.341503128875047e-05 8.668465306982398e-05 3.044941695407033e-05
87 0.7346938775510203 0.02040816326530612 5.1606897613964975e-05 9.386218152940273e-05 3.12957854475826e-05
88 0.7551020408163265 0.02040816326530612 4.988568980479613e-05 0.00010136875789612532 3.241217928007245e-05
89 0.7755102040816326 0.02040816326530612 4.803309275303036e-05 0.00010918208863586187 3.380246926099062e-05
90 0.7959183673469387 0.02040816326530612 4.634189826902002e-05 0.00011732644634321332 3.5342760384082794e-05
91 0.8163265306122448 0.02040816326530612 4.448206163942814e-05 0.00012577313464134932 3.729842137545347e-05
92 0.836734693877551 0.02040816326530612 4.267114491085522e-05 0.00013463321374729276 3.953187842853367e-05
93 0.8571428571428571 0.02040816326530612 4.08905470976606e-05 0.0001436714082956314 4.20468277297914e-05
94 0.8775510204081632 0.02040816326530612 3.908556391252205e-05 0.00015317578800022602 4.4949527364224195e-05
95 0.8979591836734693 0.02040816326530612 3.736570579349063e-05 0.00016290292842313647 4.817207809537649e-05
96 0.9183673469387754 0.02040816326530612 3.564098005881533e-05 0.00017300021136179566 5.184620385989547e-05
97 0.9387755102040816 0.02040816326530612 3.387657488929108e-05 0.00018346105935052037 5.592926754616201e-05
98 0.9591836734693877 0.02040816326530612 3.2263906177831814e-05 0.00019421009346842766 6.0409336583688855e-05
99 0.9795918367346939 0.02040816326530612 3.061745155719109e-05 0.0002052852069027722 6.536865839734674e-05
100 1.0 0.02040816326530612 2.9101487598381937e-05 0.0002167652128264308 7.071031723171473e-05
101 0.0 0.04081632653061224 8.400437218369916e-05 1.4602555893361568e-05 2.1404819563031197e-05
102 0.02040816326530612 0.04081632653061224 8.322032954310998e-05 1.3825192581862211e-05 2.3442989913746715e-05
103 0.04081632653061224 0.04081632653061224 8.248590165749192e-05 1.3102195225656033e-05 2.5282060960307717e-05
104 0.061224489795918366 0.04081632653061224 8.177982817869633e-05 1.2450735084712505e-05 2.6920606615021825e-05
105 0.08163265306122448 0.04081632653061224 8.110878843581304e-05 1.189566683024168e-05 2.8370646759867668e-05
106 0.1020408163265306 0.04081632653061224 8.04394730948843e-05 1.1428433936089277e-05 2.962796133942902e-05
107 0.12244897959183673 0.04081632653061224 7.981195085449144e-05 1.1087395250797272e-05 3.072153776884079e-05
108 0.14285714285714285 0.04081632653061224 7.916395406937227e-05 1.0861258488148451e-05 3.1629722798243165e-05
109 0.16326530612244897 0.04081632653061224 7.852958515286446e-05 1.0746181942522526e-05 3.238007775507867e-05
110 0.18367346938775508 0.04081632653061224 7.787995127728209e-05 1.0797521099448204e-05 3.29798785969615e-05
111 0.2040816326530612 0.04081632653061224 7.724095485173166e-05 1.0980293154716492e-05 3.3467047614976764e-05
112 0.22448979591836732 0.04081632653061224 7.659038237761706e-05 1.134019112214446e-05 3.378721885383129e-05
113 0.24489795918367346 0.04081632653061224 7.590133463963866e-05 1.186260487884283e-05 3.399964771233499e-05
114 0.26530612244897955 0.04081632653061224 7.518499478464946e-05 1.2570235412567854e-05 3.4067692467942834e-05
115 0.2857142857142857 0.04081632653061224 7.446660310961306e-05 1.3456621672958136e-05 3.4079712349921465e-05
116 0.3061224489795918 0.04081632653061224 7.372479740297422e-05 1.4528282918035984e-05 3.394173108972609e-05
117 0.32653061224489793 0.04081632653061224 7.29308303561993e-05 1.5815312508493662e-05 3.3744145184755325e-05
118 0.3469387755102041 0.04081632653061224 7.211667252704501e-05 1.7334299627691507e-05 3.3468269975855947e-05
119 0.36734693877551017 0.04081632653061224 7.122974056983367e-05 1.9061961211264133e-05 3.3134943805634975e-05
120 0.3877551020408163 0.04081632653061224 7.027696847217157e-05 2.101674908772111e-05 3.2754556741565466e-05
121 0.4081632653061224 0.04081632653061224 6.937705620657653e-05 2.3183878511190414e-05 3.233659663237631e-05
122 0.42857142857142855 0.04081632653061224 6.83554753777571e-05 2.5611952878534794e-05 3.188409027643502e-05
123 0.44897959183673464 0.04081632653061224 6.732556357746944e-05 2.8303475119173527e-05 3.1407776987180114e-05
124 0.4693877551020408 0.04081632653061224 6.619442137889564e-05 3.121641930192709e-05 3.09465394821018e-05
125 0.4897959183673469 0.04081632653061224 6.50217043585144e-05 3.442523302510381e-05 3.0496419640257955e-05
126 0.5102040816326531 0.04081632653061224 6.384414155036211e-05 3.7869205698370934e-05 3.0077877454459667e-05
127 0.5306122448979591 0.04081632653061224 6.265003321459517e-05 4.1566265281289816e-05 2.9668648494407535e-05
128 0.5510204081632653 0.04081632653061224 6.133271381258965e-05 4.561070818454027e-05 2.9367627575993538e-05
129 0.5714285714285714 0.04081632653061224 5.999488348606974e-05 4.988169530406594e-05 2.9104907298460603e-05
130 0.5918367346938775 0.04081632653061224 5.856274219695479e-05 5.440914537757635e-05 2.8921873308718204e-05
131 0.6122448979591836 0.04081632653061224 5.717325984733179e-05 5.926634185016155e-05 2.8867973014712334e-05
132 0.6326530612244897 0.04081632653061224 5.56707673240453e-05 6.445415783673525e-05 2.8948328690603375e-05
133 0.6530612244897959 0.04081632653061224 5.41254339623265e-05 6.98799267411232e-05 2.9106595320627093e-05
134 0.673469387755102 0.04081632653061224 5.260611942503601e-05 7.561716483905911e-05 2.943247091025114e-05
135 0.6938775510204082 0.04081632653061224 5.098391557112336e-05 8.165836334228516e-05 2.9995251679793e-05
136 0.7142857142857142 0.04081632653061224 4.934667231282219e-05 8.796696783974767e-05 3.069790545850992e-05
137 0.7346938775510203 0.04081632653061224 4.769719089381397e-05 9.464879985898733e-05 3.153362195007503e-05
138 0.7551020408163265 0.04081632653061224 4.605776848620735e-05 0.00010158278746530414 3.271916648373008e-05
139 0.7755102040816326 0.04081632653061224 4.4405998778529465e-05 0.00010888848919421434 3.405768075026572e-05
140 0.7959183673469387 0.04081632653061224 4.264267045073211e-05 0.00011649157386273146 3.568746615201235e-05
141 0.8163265306122448 0.04081632653061224 4.091952359885909e-05 0.00012441066792234778 3.757650847546756e-05
142 0.836734693877551 0.04081632653061224 3.925515920855105e-05 0.00013260653940960765 3.9740814827382565e-05
143 0.8571428571428571 0.04081632653061224 3.7648344004992396e-05 0.00014109909534454346 4.227005410939455e-05
144 0.8775510204081632 0.04081632653061224 3.5974841011920944e-05 0.0001500071957707405 4.510630969889462e-05
145 0.8979591836734693 0.04081632653061224 3.428355557844043e-05 0.00015919195720925927 4.8277113819494843e-05
146 0.9183673469387754 0.04081632653061224 3.27034285874106e-05 0.00016865460202097893 5.184902693144977e-05
147 0.9387755102040816 0.04081632653061224 3.113562343060039e-05 0.00017842452507466078 5.576407420448959e-05
148 0.9591836734693877 0.04081632653061224 2.971724097733386e-05 0.0001885750680230558 6.011954974383116e-05
149 0.9795918367346939 0.04081632653061224 2.8243453925824724e-05 0.0001990847522392869 6.487575592473149e-05
150 1.0 0.04081632653061224 2.6865744075621478e-05 0.00020985258743166924 7.014875882305205e-05
151 0.0 0.061224489795918366 7.691975770285353e-05 2.067413879558444e-05 1.8906372133642435e-05
152 0.02040816326530612 0.061224489795918366 7.625619764439762e-05 2.02227383852005e-05 2.095979289151728e-05
153 0.04081632653061224 0.061224489795918366 7.563185499748215e-05 1.9792525563389063e-05 2.2813124815002084e-05
154 0.061224489795918366 0.061224489795918366 7.50327599234879e-05 1.9407074432820082e-05 2.447573933750391e-05
155 0.08163265306122448 0.061224489795918366 7.444317452609539e-05 1.909461570903659e-05 2.5960238417610526e-05
156 0.1020408163265306 0.061224489795918366 7.388137601083145e-05 1.884566154330969e-05 2.7266069082543254e-05
157 0.12244897959183673 0.061224489795918366 7.333038229262456e-05 1.86659162864089e-05 2.8408481739461422e-05
158 0.14285714285714285 0.061224489795918366 7.277625263668597e-05 1.858244650065899e-05 2.9383256332948804e-05
159 0.16326530612244897 0.061224489795918366 7.223820284707472e-05 1.8603866919875145e-05 3.0211987905204296e-05
160 0.18367346938775508 0.061224489795918366 7.166654540924355e-05 1.874612644314766e-05 3.087593358941376e-05
161 0.2040816326530612 0.061224489795918366 7.110041042324156e-05 1.9001890905201435e-05 3.1428091460838914e-05
162 0.22448979591836732 0.061224489795918366 7.053294393699616e-05 1.9385595805943012e-05 3.1845702324062586e-05
163 0.24489795918367346 0.061224489795918366 6.993454735493287e-05 1.990731107071042e-05 3.2146344892680645e-05
164 0.26530612244897955 0.061224489795918366 6.930126983206719e-05 2.060382394120097e-05 3.233112511225045e-05
165 0.2857142857142857 0.061224489795918366 6.865142495371401e-05 2.145743928849697e-05 3.242929233238101e-05
166 0.3061224489795918 0.061224489795918366 6.796331581426784e-05 2.24602990783751e-05 3.240397199988365e-05
167 0.32653061224489793 0.061224489795918366 6.723569822497666e-05 2.3637665435671806e-05 3.2314390409737825e-05
168 0.3469387755102041 0.061224489795918366 6.647637928836048e-05 2.500606933608651e-05 3.2155425287783146e-05
169 0.36734693877551017 0.061224489795918366 6.56888514640741e-05 2.6607129257172346e-05 3.191409632563591e-05
170 0.3877551020408163 0.061224489795918366 6.484656478278339e-05 2.835976192727685e-05 3.166066017001867e-05
171 0.4081632653061224 0.061224489795918366 6.396675598807633e-05 3.034633118659258e-05 3.133289283141494e-05
172 0.42857142857142855 0.061224489795918366 6.299804954323918e-05 3.255554474890232e-05 3.102567279711366e-05
173 0.44897959183673464 0.061224489795918366 6.203626253409311e-05 3.495311830192804e-05 3.0685128876939416e-05
174 0.4693877551020408 0.061224489795918366 6.0986603784840554e-05 3.762956475839019e-05 3.0320457881316543e-05
175 0.4897959183673469 0.061224489795918366 5.990012869006023e-05 4.0503102354705334e-05 2.997848787344992e-05
176 0.5102040816326531 0.061224489795918366 5.8794663345906883e-05 4.365126369521022e-05 2.9685907065868378e-05
177 0.5306122448979591 0.061224489795918366 5.758273618994281e-05 4.7029112465679646e-05 2.9428483685478568e-05
178 0.5510204081632653 0.061224489795918366 5.6338481954298913e-05 5.0662842113524675e-05 2.9208429623395205e-05
179 0.5714285714285714 0.061224489795918366 5.510525079444051e-05 5.457334918901324e-05 2.9023707611486316e-05
180 0.5918367346938775 0.061224489795918366 5.376672197598964e-05 5.8728212025016546e-05 2.8997688787057996e-05
181 0.6122448979591836 0.061224489795918366 5.244050407782197e-05 6.314163329079747e-05 2.9005779651924968e-05
182 0.6326530612244897 0.061224489795918366 5.100140697322786e-05 6.788969039916992e-05 2.912481431849301e-05
183 0.6530612244897959 0.061224489795918366 4.957848432241008e-05 7.286167237907648e-05 2.9400427592918277e-05
184 0.673469387755102 0.061224489795918366 4.810003156308085e-05 7.81520502641797e-05 2.9799295589327812e-05
185 0.6938775510204082 0.061224489795918366 4.6584980736952275e-05 8.368463022634387e-05 3.039379953406751e-05
186 0.7142857142857142 0.061224489795918366 4.513125531957485e-05 8.954718941822648e-05 3.1104806112125516e-05
187 0.7346938775510203 0.061224489795918366 4.348604488768615e-05 9.566615335643291e-05 3.20772232953459e-05
188 0.7551020408163265 0.061224489795918366 4.1934632463380694e-05 0.00010209623724222183 3.321206895634532e-05
189 0.7755102040816326 0.061224489795918366 4.03739140892867e-05 0.00010885560186579823 3.45810258295387e-05
190 0.7959183673469387 0.061224489795918366 3.878806819557212e-05 0.00011589733185246587 3.617510083131492e-05
191 0.8163265306122448 0.061224489795918366 3.720041422639042e-05 0.00012321729445829988 3.807901521213353e-05
192 0.836734693877551 0.061224489795918366 3.565433144103736e-05 0.00013087841216474771 4.023121437057853e-05
193 0.8571428571428571 0.061224489795918366 3.414074672036804e-05 0.000138831848744303 4.263772279955447e-05
194 0.8775510204081632 0.061224489795918366 3.259999357396737e-05 0.00014709326205775142 4.543786053545773e-05
195 0.8979591836734693 0.061224489795918366 3.111860132776201e-05 0.0001556907081976533 4.848279058933258e-05
196 0.9183673469387754 0.061224489795918366 2.966433748952113e-05 0.0001645376323722303 5.196925485506654e-05
197 0.9387755102040816 0.061224489795918366 2.8290720365475863e-05 0.0001737766433507204 5.575470277108252e-05
198 0.9591836734693877 0.061224489795918366 2.691689587663859e-05 0.0001832839916460216 5.996858817525208e-05
199 0.9795918367346939 0.061224489795918366 2.5634233679738827e-05 0.00019306736066937447 6.458911229856312e-05
200 1.0 0.061224489795918366 2.4432558348053135e-05 0.00020327494712546468 6.957893492653966e-05
201 0.0 0.08163265306122448 6.964910426177084e-05 2.6755325961858034e-05 1.6818841686472297e-05
202 0.02040816326530612 0.08163265306122448 6.910268712090328e-05 2.662010956555605e-05 1.8865714082494378e-05
203 0.04081632653061224 0.08163265306122448 6.857378321001306e-05 2.6501307729631662e-05 2.07439879886806e-05
204 0.061224489795918366 0.08163265306122448 6.806016608607024e-05 2.6404799427837133e-05 2.242563641630113e-05
205 0.08163265306122448 0.08163265306122448 6.757704977644607e-05 2.6320922188460827e-05 2.3934204364195466e-05
206 0.1020408163265306 0.08163265306122448 6.71057787258178e-05 2.6287627406418324e-05 2.5272078346461058e-05
207 0.12244897959183673 0.08163265306122448 6.663738895440474e-05 2.6310095563530922e-05 2.6461173547431827e-05
208 0.14285714285714285 0.08163265306122448 6.61691083223559e-05 2.6386172976344824e-05 2.749136183410883e-05
209 0.16326530612244897 0.08163265306122448 6.57119817333296e-05 2.6531401090323925e-05 2.8381444280967116e-05
210 0.18367346938775508 0.08163265306122448 6.52294693281874e-05 2.67659779638052e-05 2.912755007855594e-05
211 0.2040816326530612 0.08163265306122448 6.475400732597336e-05 2.708763349801302e-05 2.974673407152295e-05
212 0.22448979591836732 0.08163265306122448 6.424010643968359e-05 2.7523841708898544e-05 3.0234543373808265e-05
213 0.24489795918367346 0.08163265306122448 6.370422488544136e-05 2.8059643227607012e-05 3.0626601073890924e-05
214 0.26530612244897955 0.08163265306122448 6.314794882200658e-05 2.8750102501362562e-05 3.088550874963403e-05
215 0.2857142857142857 0.08163265306122448 6.257185305003077e-05 2.9537826776504517e-05 3.108603414148092e-05
216 0.3061224489795918 0.08163265306122448 6.192993168951944e-05 3.0464143492281437e-05 3.117843880318105e-05
217 0.32653061224489793 0.08163265306122448 6.12753865425475e-05 3.15691577270627e-05 3.118577296845615e-05
218 0.3469387755102041 0.08163265306122448 6.058210419723764e-05 3.28139285556972e-05 3.113460843451321e-05
219 0.36734693877551017 0.08163265306122448 5.982532456982881e-05 3.4248863812536e-05 3.10183095280081e-05
220 0.3877551020408163 0.08163265306122448 5.9059988416265696e-05 3.585201920941472e-05 3.08873422909528e-05
221 0.4081632653061224 0.08163265306122448 5.823349056299776e-05 3.7606514524668455e-05 3.0674098525196314e-05
222 0.42857142857142855 0.08163265306122448 5.7370423746760935e-05 3.9599661249667406e-05 3.0463619623333216e-05
223 0.44897959183673464 0.08163265306122448 5.6447570386808366e-05 4.176812944933772e-05 3.023503813892603e-05
224 0.4693877551020408 0.08163265306122448 5.548237822949886e-05 4.420068580657244e-05 2.9977294616401196e-05
225 0.4897959183673469 0.08163265306122448 5.4457712394651026e-05 4.6778470277786255e-05 2.9749557143077254e-05
226 0.5102040816326531 0.08163265306122448 5.3395160648506135e-05 4.959059879183769e-05 2.9599497793242335e-05
227 0.5306122448979591 0.08163265306122448 5.230987153481692e-05 5.2624265663325787e-05 2.9381626518443227e-05
228 0.5510204081632653 0.08163265306122448 5.115172825753689e-05 5.592568777501583e-05 2.9299117159098387e-05
229 0.5714285714285714 0.08163265306122448 4.9887072236742824e-05 5.946657620370388e-05 2.9209651984274387e-05
230 0.5918367346938775 0.08163265306122448 4.869165422860533e-05 6.32303417660296e-05 2.9229820938780904e-05
231 0.6122448979591836 0.08163265306122448 4.7429690312128514e-05 6.724917329847813e-05 2.9368122341111302e-05
232 0.6326530612244897 0.08163265306122448 4.6098080929368734e-05 7.151917088776827e-05 2.956896787509322e-05
233 0.6530612244897959 0.08163265306122448 4.4730371882906184e-05 7.608236046507955e-05 2.988922642543912e-05
234 0.673469387755102 0.08163265306122448 4.335627454565838e-05 8.087343303486705e-05 3.0372844776138663e-05
235 0.6938775510204082 0.08163265306122448 4.198720125714317e-05 8.59802239574492e-05 3.0994851840659976e-05
236 0.7142857142857142 0.08163265306122448 4.056408943142742e-05 9.130866965278983e-05 3.172340802848339e-05
237 0.7346938775510203 0.08163265306122448 3.908906001015566e-05 9.694375330582261e-05 3.2723008189350367e-05
238 0.7551020408163265 0.08163265306122448 3.766002191696316e-05 0.00010285485768690705 3.3892138162627816e-05
239 0.7755102040816326 0.08163265306122448 3.621158248279244e-05 0.00010908010881394148 3.524354542605579e-05
240 0.7959183673469387 0.08163265306122448 3.47087079717312e-05 0.00011553941294550896 3.6843790439888835e-05
241 0.8163265306122448 0.08163265306122448 3.3274984161835164e-05 0.0001223227591253817 3.86997708119452e-05
242 0.836734693877551 0.08163265306122448 3.1876887078396976e-05 0.0001293893437832594 4.084789543412626e-05
243 0.8571428571428571 0.08163265306122448 3.048235157621093e-05 0.00013683148426935077 4.323673783801496e-05
244 0.8775510204081632 0.08163265306122448 2.909012073359918e-05 0.0001444528461433947 4.589374293573201e-05
245 0.8979591836734693 0.08163265306122448 2.7683874577633105e-05 0.00015244464157149196 4.890802665613592e-05
246 0.9183673469387754 0.08163265306122448 2.644917185534723e-05 0.0001607173471711576 5.2191404392942786e-05
247 0.9387755102040816 0.08163265306122448 2.5190995074808598e-05 0.0001693226513452828 5.59350592084229e-05
248 0.9591836734693877 0.08163265306122448 2.4042561562964693e-05 0.00017829163698479533 5.997702828608453e-05
249 0.9795918367346939 0.08163265306122448 2.2978667402639985e-05 0.00018742901738733053 6.443852907977998e-05
250 1.0 0.08163265306122448 2.1918085622019134e-05 0.00019697326933965087 6.927229696884751e-05
251 0.0 0.1020408163265306 6.22291918261908e-05 3.2833428122103214e-05 1.5104364138096571e-05
252 0.02040816326530612 0.1020408163265306 6.176366150612012e-05 3.3046118915081024e-05 1.715883263386786e-05
253 0.04081632653061224 0.1020408163265306 6.133989518275484e-05 3.323471173644066e-05 1.902529038488865e-05
254 0.061224489795918366 0.1020408163265306 6.092264084145427e-05 3.3409218303859234e-05 2.072565257549286e-05
255 0.08163265306122448 0.1020408163265306 6.05331952101551e-05 3.3580814488232136e-05 2.2273306967690587e-05
256 0.1020408163265306 0.1020408163265306 6.012790254317224e-05 3.3768475987017155e-05 2.364290412515402e-05
257 0.12244897959183673 0.1020408163265306 5.975827662041411e-05 3.398506669327617e-05 2.4867302272468805e-05
258 0.14285714285714285 0.1020408163265306 5.936335219303146e-05 3.4206314012408257e-05 2.594676334410906e-05
259 0.16326530612244897 0.1020408163265306 5.897240771446377e-05 3.449438372626901e-05 2.6896537747234106e-05
260 0.18367346938775508 0.1020408163265306 5.857814539922401e-05 3.484106855466962e-05 2.769735874608159e-05
261 0.2040816326530612 0.1020408163265306 5.814100586576387e-05 3.526610089465976e-05 2.8385315090417862e-05
262 0.22448979591836732 0.1020408163265306 5.7705889048520476e-05 3.5733391996473074e-05 2.8955662855878472e-05
263 0.24489795918367346 0.1020408163265306 5.7253077102359384e-05 3.6274606827646494e-05 2.941439743153751e-05
264 0.26530612244897955 0.1020408163265306 5.678679735865444e-05 3.6943412851542234e-05 2.979038981720805e-05
265 0.2857142857142857 0.1020408163265306 5.6237156968563795e-05 3.7713267374783754e-05 3.004944301210344e-05
266 0.3061224489795918 0.1020408163265306 5.5669836001470685e-05 3.859028220176697e-05 3.0249590054154396e-05
267 0.32653061224489793 0.1020408163265306 5.505666194949299e-05 3.958627348765731e-05 3.0361581593751907e-05
268 0.3469387755102041 0.1020408163265306 5.44465146958828e-05 4.073051968589425e-05 3.0407594749704003e-05
269 0.36734693877551017 0.1020408163265306 5.376010085456073e-05 4.201970295980573e-05 3.041929448954761e-05
270 0.3877551020408163 0.1020408163265306 5.30249162693508e-05 4.343502223491669e-05 3.037662827409804e-05
271 0.4081632653061224 0.1020408163265306 5.229152156971395e-05 4.504650132730603e-05 3.0257273465394974e-05
272 0.42857142857142855 0.1020408163265306 5.1458417146932334e-05 4.68167127110064e-05 3.0148134101182222e-05
273 0.44897959183673464 0.1020408163265306 5.05799544043839e-05 4.874001024290919e-05 3.0019786208868027e-05
274 0.4693877551020408 0.1020408163265306 4.971839371137321e-05 5.0889269914478064e-05 2.9904884286224842e-05
275 0.4897959183673469 0.1020408163265306 4.875810554949567e-05 5.321187200024724e-05 2.9813701985403895e-05
276 0.5102040816326531 0.1020408163265306 4.776005516760051e-05 5.569221684709191e-05 2.9668706702068448e-05
277 0.5306122448979591 0.1020408163265306 4.6712761104572564e-05 5.842256359755993e-05 2.9632006771862507e-05
278 0.5510204081632653 0.1020408163265306 4.564634946291335e-05 6.138021126389503e-05 2.9603601433336735e-05
279 0.5714285714285714 0.1020408163265306 4.4522545067593455e-05 6.449606735259295e-05 2.9610615456476808e-05
280 0.5918367346938775 0.1020408163265306 4.338577127782628e-05 6.789516191929579e-05 2.973221126012504e-05