ITEM: TIMESTEP
22335000
ITEM: NUMBER OF ATOMS
5000
ITEM: BOX BOUNDS mm mm mm
0 0.1
-0.015 0.015
0 0.3
ITEM: ATOMS id type x y z f_Temp[0] 
977 1 0.00102825 -0.014 0.000999993 300.118 
581 1 0.0028054 -0.013082 0.000999998 300 
980 1 0.00536401 -0.0139934 0.000999992 300.194 
1252 1 0.00736682 -0.0139977 0.000999998 300 
648 1 0.00943464 -0.014 0.000999991 300.403 
1049 1 0.0114353 -0.0139954 0.000999998 300 
585 1 0.0133901 -0.0135649 0.000999998 300 
453 1 0.0153493 -0.0139698 0.000999997 300.02 
812 1 0.0173493 -0.0139999 0.000999993 300.348 
1111 1 0.0195007 -0.0134438 0.000999984 300.422 
713 1 0.021422 -0.014 0.000999994 300.103 
1065 1 0.0234048 -0.014 0.00126756 300.052 
82 1 0.0265155 -0.0139931 0.000999994 300.258 
383 1 0.0285156 -0.014 0.000999992 300.227 
930 1 0.030521 -0.014 0.000999997 300.354 
936 1 0.0322405 -0.014 0.00202133 300.479 
1185 1 0.0365621 -0.014 0.000999997 300.12 
961 1 0.0387276 -0.014 0.00158109 300.551 
397 1 0.0415067 -0.014 0.000999998 300.224 
434 1 0.0453634 -0.0139995 0.000999989 300.099 
845 1 0.0473634 -0.013996 0.000999993 300.044 
69 1 0.0493634 -0.014 0.000999998 300 
775 1 0.00100002 -0.0113754 0.000999998 300 
100 1 0.0029795 -0.0110896 0.000999992 300.717 
914 1 0.00557519 -0.0112015 0.00100005 300.813 
80 1 0.00757517 -0.0111953 0.000999991 301.606 
451 1 0.00998402 -0.0120769 0.000999996 301.095 
796 1 0.00840292 -0.0126653 0.00207425 300.394 
693 1 0.0116631 -0.012314 0.00206038 301.903 
1317 1 0.0131863 -0.0115688 0.000999987 301.962 
915 1 0.0160944 -0.0121103 0.000999994 300.471 
410 1 0.0190455 -0.011496 0.000999996 300.471 
830 1 0.0224371 -0.0122702 0.000999998 300.005 
320 1 0.0247898 -0.0125822 0.000999992 300.467 
112 1 0.0274126 -0.0122056 0.000999996 300.646 
75 1 0.0305709 -0.0120006 0.000999993 301.371 
44 1 0.0325472 -0.012308 0.000999993 300.801 
903 1 0.0346614 -0.0124727 0.000999987 301.403 
501 1 0.0399655 -0.0125406 0.000999994 301.244 
606 1 0.0381813 -0.0121244 0.00200969 302.081 
895 1 0.0424953 -0.0112468 0.000999991 301.743 
98 1 0.0440827 -0.0124633 0.000999998 300.426 
591 1 0.0463639 -0.0121885 0.000999998 300 
260 1 0.0483399 -0.0113954 0.000999988 301.634 
341 1 0.00236835 -0.00912792 0.000999989 301.379 
781 1 0.00434315 -0.00962605 0.00099999 302.118 
163 1 0.00630249 -0.00922482 0.000999992 303.322 
180 1 0.00969329 -0.0104144 0.00207298 305.136 
657 1 0.0113778 -0.0106424 0.000999994 301.02 
479 1 0.0130888 -0.00957115 0.00099999 303.486 
1334 1 0.0156328 -0.00933789 0.000999989 304.435 
236 1 0.0173021 -0.0105161 0.00100003 302.008 
463 1 0.0189969 -0.0094543 0.000999987 304.212 
1058 1 0.020961 -0.0109208 0.000999997 300.579 
214 1 0.021988 -0.00920459 0.000999991 304.461 
48 1 0.0236592 -0.010687 0.000999996 301.096 
1001 1 0.0256579 -0.0107646 0.000999989 301.328 
157 1 0.0275721 -0.0101849 0.00099999 304.769 
154 1 0.0295703 -0.010269 0.000999998 305.118 
849 1 0.0316898 -0.0101273 0.000999998 300.439 
986 1 0.0337356 -0.0106994 0.000999992 303.583 
352 1 0.0353603 -0.00937906 0.000999998 304.598 
391 1 0.037078 -0.0107965 0.00099999 303.482 
828 1 0.0380495 -0.00904828 0.000999991 308.678 
1302 1 0.0391669 -0.010707 0.000999988 302.921 
1153 1 0.0410033 -0.00991491 0.000999992 304.339 
1029 1 0.0435086 -0.00935559 0.000999995 303.914 
734 1 0.0450013 -0.0106867 0.000999997 300.97 
168 1 0.0467898 -0.0104128 0.001852 302.136 
673 1 0.0479253 -0.00900397 0.000999991 304.173 
230 1 0.00208414 -0.00710001 0.000999993 304.782 
962 1 0.00400567 -0.00765473 0.000999989 306.512 
829 1 0.00807393 -0.0082964 0.000999989 308.467 
409 1 0.0100683 -0.00814704 0.00100015 304.729 
524 1 0.0120481 -0.00786324 0.000999994 304.809 
1221 1 0.0140493 -0.00781582 0.000999998 300.213 
1092 1 0.0173393 -0.0086903 0.00181755 311.664 
461 1 0.016624 -0.00701102 0.000999992 305.358 
1062 1 0.0197951 -0.00762048 0.000999986 313.25 
790 1 0.0215614 -0.00748521 0.00192831 323.987 
200 1 0.0233297 -0.00737885 0.000999993 313.147 
602 1 0.0247258 -0.00899514 0.000999997 301.775 
546 1 0.0254076 -0.0074302 0.00204216 304.828 
1240 1 0.0269157 -0.00822994 0.000999998 300.994 
247 1 0.0292594 -0.00829331 0.00099999 311.48 
973 1 0.0315646 -0.00811889 0.00099999 307.264 
1319 1 0.0334732 -0.00871669 0.000999992 306.303 
947 1 0.0365133 -0.00779137 0.00138712 303.206 
238 1 0.0398083 -0.00744564 0.000999998 305.953 
162 1 0.0418495 -0.0074874 0.000999997 301.63 
367 1 0.0444121 -0.00769988 0.0016651 304.397 
1274 1 0.0459344 -0.00881346 0.000999986 305.6 
1074 1 0.0498523 -0.0083785 0.000999998 300 
28 1 0.0010002 -0.00541922 0.000999994 303.536 
956 1 0.00299516 -0.00525887 0.000999998 300 
134 1 0.00500411 -0.00536152 0.000999994 310.138 
825 1 0.00684751 -0.00671657 0.000999995 309.375 
976 1 0.00894151 -0.00649438 0.000999994 315.878 
169 1 0.0109715 -0.00601028 0.000999993 312.33 
556 1 0.0129962 -0.00610228 0.000999995 313.758 
421 1 0.0149261 -0.00609382 0.001525 311.317 
1217 1 0.0184323 -0.00615665 0.000999998 308.659 
1325 1 0.0210613 -0.00573828 0.000999998 300 
496 1 0.0230199 -0.00528279 0.000999996 317.49 
639 1 0.024956 -0.005784 0.00099999 317.267 
1151 1 0.0269057 -0.0062297 0.000999984 318.942 
443 1 0.0289773 -0.00543738 0.000999998 300 
1231 1 0.0310305 -0.00545212 0.000999998 300 
146 1 0.0303193 -0.00698151 0.00207498 322.299 
1290 1 0.0330366 -0.00676492 0.000999997 307.271 
1075 1 0.0353259 -0.00621403 0.000999995 306.52 
618 1 0.038025 -0.00654034 0.000999998 301.307 
83 1 0.0399098 -0.00544822 0.000999985 320.317 
974 1 0.0424605 -0.00544572 0.000999991 316.34 
1289 1 0.0449382 -0.00588859 0.000999992 311.686 
772 1 0.0466402 -0.00609637 0.0020296 319.575 
530 1 0.0482999 -0.00652692 0.000999994 306.967 
283 1 0.00371045 -0.00338739 0.000999998 300 
750 1 0.00569452 -0.00311851 0.000999998 300 
234 1 0.00689912 -0.00471724 0.000999994 317.093 
1025 1 0.008087 -0.00310814 0.000999998 300 
139 1 0.00957566 -0.00451691 0.000999998 300 
791 1 0.0119528 -0.0041857 0.000999985 328.021 
402 1 0.0153626 -0.004214 0.000999994 316.556 
1087 1 0.017357 -0.00447035 0.000999991 318.601 
519 1 0.0193899 -0.00431182 0.000999993 320.954 
275 1 0.0216938 -0.00378558 0.000999994 314.826 
142 1 0.0249492 -0.00393316 0.00175782 324.651 
90 1 0.0267754 -0.00423396 0.000999996 315.397 
492 1 0.032699 -0.00434362 0.000999993 316.856 
749 1 0.0350091 -0.00423928 0.000999994 317.75 
1187 1 0.0369358 -0.00484893 0.000999997 307.481 
175 1 0.0402006 -0.00358298 0.00166048 335.411 
1050 1 0.0420853 -0.00347573 0.000999995 313.084 
846 1 0.0439728 -0.00413701 0.000999988 319.039 
424 1 0.0456873 -0.00431841 0.00201368 319.838 
1243 1 0.0474114 -0.00430605 0.000999998 316.476 
3721 1 0.0493439 -0.00482097 0.000999988 312.604 
77 1 0.00106554 -0.00208277 0.000999998 300 
37 1 0.00269634 -0.00135299 0.00200246 328.124 
1108 1 0.00442621 -0.00130241 0.000999983 326.926 
385 1 0.0074663 -0.0011745 0.000999988 332.922 
89 1 0.0100507 -0.00255575 0.000999998 300 
318 1 0.0118586 -0.00167902 0.000999998 315.716 
32 1 0.0138228 -0.00205531 0.000999998 311.567 
964 1 0.0158217 -0.00212183 0.000999998 309.939 
1180 1 0.0177825 -0.00251614 0.000999993 318.101 
885 1 0.0201852 -0.00247261 0.000999997 320.904 
264 1 0.0220832 -0.00158202 0.000999986 332.944 
258 1 0.0241116 -0.00228266 0.001 331.842 
291 1 0.0258098 -0.00110755 0.000999998 313.62 
1052 1 0.0282802 -0.00291658 0.000999992 332.255 
486 1 0.0304223 -0.00274938 0.000999993 324.188 
401 1 0.0328101 -0.00186878 0.000999996 315.152 
91 1 0.0348112 -0.00186302 0.00099999 323.686 
1248 1 0.0364864 -0.00291987 0.00127711 314.605 
1196 1 0.0384654 -0.00283657 0.000999995 316.288 
351 1 0.0409167 -0.00183629 0.000999995 324.309 
1003 1 0.0429074 -0.00158963 0.000999997 316.291 
545 1 0.0452833 -0.00262575 0.000999997 321.587 
31 1 0.0472197 -0.00212533 0.000999991 318.876 
1027 1 0.0491105 -0.00283465 0.000999996 306.76 
620 1 0.00150677 0.000624044 0.000999984 318.271 
817 1 0.00370943 0.000569693 0.000999998 300 
127 1 0.00591125 -0.000406584 0.00199601 358.838 
306 1 0.00756563 0.000823028 0.000999994 321.409 
167 1 0.00960301 -0.000600847 0.000999992 338.027 
721 1 0.0132144 -0.000384327 0.00191523 357.94 
33 1 0.0157878 -0.000111108 0.000999998 300 
522 1 0.0178049 -0.000352626 0.000999998 300 
1330 1 0.0201725 -0.00047203 0.000999998 300 
624 1 0.0239822 -0.000286865 0.000999988 336.658 
799 1 0.0222849 0.000162791 0.00195755 366.001 
644 1 0.0278053 -0.000973797 0.000999988 342.265 
181 1 0.0267602 0.000746005 0.000999994 346.961 
289 1 0.0300684 -0.000444246 0.000999989 331.608 
899 1 0.0320249 -2.93762e-05 0.000999997 316.434 
184 1 0.0341146 1.6862e-05 0.000999998 303.116 
1191 1 0.0369447 -0.000988282 0.000999998 309.823 
625 1 0.0395942 -0.000290997 0.000999998 317.525 
250 1 0.0417007 7.81932e-06 0.000999996 330.741 
1247 1 0.0440458 0.00057449 0.000999991 331.074 
518 1 0.045939 -0.000588995 0.000999992 339.524 
198 1 0.0476838 0.000898671 0.000999998 300 
527 1 0.0488465 -0.000852146 0.000999995 317.21 
904 1 0.0494914 0.00083641 0.00185608 346.456 
305 1 0.00264916 0.00226565 0.00100002 327.998 
408 1 0.00557638 0.00129512 0.000999993 341.816 
1037 1 0.00643218 0.00282586 0.00196146 371.544 
1054 1 0.00968458 0.00225442 0.000999996 322.431 
310 1 0.0118963 0.00105149 0.000999998 306.106 
364 1 0.0129022 0.00293552 0.000999998 311.946 
392 1 0.0139525 0.00123354 0.000999991 334.998 
430 1 0.0169059 0.00174167 0.000999993 339.46 
723 1 0.0189958 0.0017279 0.000999992 330.272 
279 1 0.0209923 0.00135248 0.000999998 300 
1099 1 0.0248586 0.00295496 0.000999993 342.655 
1044 1 0.0241312 0.00141222 0.00204443 380.002 
1226 1 0.0268526 0.0027672 0.000999989 359.602 
474 1 0.0285332 0.00167963 0.000999992 337.873 
1175 1 0.0304799 0.00146998 0.0014079 346.185 
280 1 0.033244 0.0018183 0.000999998 310.992 
476 1 0.0350733 0.0024588 0.0014934 340.013 
735 1 0.0363974 0.00104339 0.000999985 348.367 
311 1 0.0384834 0.00158561 0.000999987 350.77 
562 1 0.0405308 0.00178272 0.000999989 345.104 
197 1 0.0425283 0.0018813 0.000999995 329.827 
615 1 0.0443907 0.00261031 0.000999986 344.437 
568 1 0.0458138 0.00132471 0.00156747 371.086 
1197 1 0.0497082 0.00263088 0.000999994 344.557 
366 1 0.00100063 0.00383724 0.000999997 307.158 
920 1 0.0043839 0.00326097 0.00099999 332.497 
1036 1 0.00644525 0.00457953 0.000999989 334.186 
314 1 0.00844584 0.00420036 0.000999998 300 
1224 1 0.0104826 0.00408961 0.000999992 337.325 
1124 1 0.0123036 0.0049164 0.000999992 344.487 
1286 1 0.0152051 0.00422662 0.000999983 347.939 
972 1 0.0186014 0.00369399 0.000999996 322.999 
493 1 0.0202753 0.0030119 0.00185588 375.442 
939 1 0.02075 0.00475605 0.000999988 353.78 
923 1 0.0220823 0.00307749 0.000999993 339.897 
241 1 0.0235323 0.00445514 0.00099999 352.622 
322 1 0.0254857 0.00479463 0.00147149 357.51 
485 1 0.0274261 0.00468323 0.000999995 342.11 
814 1 0.0294225 0.00456453 0.000999989 348.762 
1229 1 0.031651 0.00303909 0.000999991 341.196 
879 1 0.0329343 0.00472727 0.000999998 300 
1019 1 0.0354244 0.00436559 0.000999992 341.588 
26 1 0.0374497 0.00408388 0.000999998 300 
946 1 0.0393305 0.00340354 0.000999998 315.588 
1314 1 0.041438 0.0035651 0.000999997 334.955 
300 1 0.0429164 0.00497018 0.000999991 342.949 
757 1 0.0450353 0.00455745 0.000999996 332.49 
121 1 0.0464429 0.00313648 0.000999998 300 
2899 1 0.0491937 0.0045982 0.000999981 350.929 
235 1 0.0481355 0.00327053 0.00205706 380.682 
852 1 0.00147344 0.00578054 0.000999994 306.82 
143 1 0.00359123 0.00509717 0.000999997 327.926 
712 1 0.00611097 0.00655139 0.000999995 330.812 
857 1 0.00765647 0.00583318 0.0020467 353.996 
156 1 0.0101026 0.00606706 0.000999991 339.56 
733 1 0.0125017 0.00690655 0.000999988 348.495 
761 1 0.0142907 0.0060108 0.000999998 300 
1306 1 0.0170989 0.00501409 0.000999991 334.58 
1285 1 0.0165012 0.00696601 0.000999998 308.067 
237 1 0.0189814 0.0056897 0.000999997 329.476 
621 1 0.0222928 0.00602882 0.00099999 341.8 
1134 1 0.0242725 0.00631312 0.000999989 344.555 
1154 1 0.028986 0.0067722 0.000999991 347.211 
332 1 0.0310772 0.00569306 0.000999998 300 
404 1 0.0326452 0.00696578 0.000999994 335.679 
1299 1 0.0344553 0.0061151 0.000999994 334.724 
1088 1 0.0366774 0.00592881 0.000999988 363.32 
54 1 0.0390828 0.00538836 0.000999994 335.075 
176 1 0.0410339 0.00582837 0.000999992 336.296 
544 1 0.045514 0.00651519 0.000999998 300 
469 1 0.0472716 0.00515104 0.000999995 330.031 
14 1 0.0486979 0.00655309 0.000999996 338.711 
741 1 0.000999996 0.00772368 0.00100003 310.805 
187 1 0.00278473 0.00862649 0.000999991 321.582 
540 1 0.00401709 0.00705129 0.000999987 326.101 
193 1 0.00477803 0.00895665 0.000999998 300 
253 1 0.0068207 0.00842122 0.000999996 326.99 
959 1 0.00850773 0.00730957 0.000999992 335.77 
328 1 0.0114071 0.00884948 0.000999998 300 
718 1 0.0132987 0.00844915 0.0019926 351.433 
978 1 0.0151909 0.00848408 0.000999991 338.4 
488 1 0.0171399 0.00893312 0.000999991 331.167 
847 1 0.0186891 0.00766823 0.000999992 333.701 
473 1 0.0206948 0.00740118 0.000999998 300 
854 1 0.0226507 0.00799697 0.000999991 347.845 
207 1 0.026375 0.00739615 0.000999998 300.084 
513 1 0.0293352 0.00896057 0.00151575 330.792 
651 1 0.0307733 0.00766986 0.000999989 335.457 
1298 1 0.0326488 0.00875108 0.00190147 334.296 
1244 1 0.0353883 0.00770327 0.00177925 368.402 
611 1 0.0372176 0.00791835 0.000999986 342.124 
730 1 0.0393604 0.00754583 0.000999997 330.592 
835 1 0.0417267 0.00744182 0.00195747 380.979 
110 1 0.0436805 0.00766014 0.000999996 332.411 
428 1 0.0469194 0.00795518 0.000999997 311.485 
174 1 0.0497579 0.00825521 0.000999987 349.81 
205 1 0.00100021 0.00991911 0.000999985 311.03 
177 1 0.00272024 0.0104073 0.001908 321.665 
674 1 0.00638342 0.0103728 0.000999989 325.639 
79 1 0.00942032 0.00908922 0.000999998 335.349 
1320 1 0.0104938 0.0103921 0.00207241 348.432 
779 1 0.012119 0.0108494 0.00100017 332.035 
292 1 0.0139551 0.0100566 0.000999991 332.754 
11 1 0.015904 0.0105056 0.00099999 327.2 
50 1 0.0188973 0.00950435 0.00176508 324.056 
1042 1 0.0207436 0.0094288 0.000999998 307.2 
694 1 0.0226224 0.0101149 0.000999989 333.739 
147 1 0.0240051 0.00907428 0.00200252 363.349 
983 1 0.0256274 0.00967679 0.000999989 331.728 
798 1 0.0278229 0.0101635 0.000999996 313.829 
966 1 0.0311269 0.00968438 0.000999995 319.006 
1186 1 0.033815 0.0102344 0.000999995 325.092 
1091 1 0.035782 0.00950263 0.000999993 338.375 
93 1 0.0382867 0.00960858 0.000999998 333.978 
1160 1 0.0399631 0.0106994 0.000999988 320.106 
575 1 0.0411762 0.00910919 0.00099999 337.045 
985 1 0.04312 0.00957997 0.000999996 320.576 
359 1 0.0453271 0.00941899 0.000999995 328.345 
969 1 0.0472618 0.00992566 0.000999998 315.053 
78 1 0.0492059 0.0103951 0.000999992 316.935 
363 1 0.000999994 0.0125472 0.000999995 303.673 
811 1 0.00296408 0.0122886 0.00127469 311.619 
743 1 0.00449491 0.0110312 0.000999993 313.104 
1251 1 0.00600936 0.0123375 0.000999995 310.992 
72 1 0.009055 0.0112752 0.000999994 321.625 
1313 1 0.0110293 0.0125265 0.00099999 317.833 
654 1 0.0139151 0.0120596 0.000999989 323.52 
271 1 0.0178307 0.0110466 0.000999998 300 
15 1 0.0191506 0.0123316 0.00178965 319.146 
215 1 0.0208644 0.0116686 0.00099999 318.954 
420 1 0.0226323 0.0118976 0.00190669 325.383 
449 1 0.0244554 0.012149 0.000999998 309.584 
39 1 0.0263672 0.0115349 0.000999992 315.718 
188 1 0.0295985 0.0111181 0.000999991 323.313 
425 1 0.028129 0.0124814 0.000999992 308.042 
1095 1 0.0312193 0.01229 0.000999998 300.001 
1227 1 0.033219 0.0122468 0.000999995 314.161 
119 1 0.035345 0.0122921 0.000999998 300 
650 1 0.0369685 0.0111127 0.000999989 326.633 
1138 1 0.0386186 0.0122428 0.000999992 319.69 
979 1 0.0405124 0.0124274 0.00184388 330.299 
316 1 0.042418 0.0117033 0.000999998 309.333 
1297 1 0.0443447 0.0111611 0.00099999 325.793 
1206 1 0.046545 0.0118446 0.000999993 321.739 
380 1 0.0484365 0.0121497 0.00157368 313.837 
347 1 0.00209295 0.014 0.00183359 303.811 
309 1 0.00396196 0.014 0.000999998 304.947 
1130 1 0.00566062 0.014 0.00205571 311.661 
807 1 0.00735927 0.014 0.000999991 307.5 
114 1 0.00931258 0.0135525 0.000999993 309.095 
240 1 0.0123816 0.014 0.000999997 307.36 
672 1 0.0144052 0.014 0.000999998 304.465 
729 1 0.0161846 0.014 0.00191321 314.131 
758 1 0.0179409 0.0137147 0.000999996 309.211 
1038 1 0.0199206 0.014 0.000999993 307.753 
81 1 0.0217812 0.0139926 0.00173331 313.359 
676 1 0.0236419 0.0139761 0.000999994 307.217 
534 1 0.0264762 0.0137817 0.000999998 300 
526 1 0.0299137 0.014 0.000999997 303.202 
101 1 0.0322566 0.014 0.000999994 307.811 
1304 1 0.0342566 0.014 0.00099999 309.661 
1171 1 0.0370564 0.0139155 0.000999998 300 
442 1 0.0396097 0.014 0.000999989 315.422 
348 1 0.0423167 0.0137137 0.000999998 300 
626 1 0.0443208 0.014 0.000999994 308.05 
935 1 0.0466459 0.0139512 0.000999998 300 
766 1 0.0489339 0.014 0.000999995 308.774 
728 1 0.00392052 -0.014 0.00238429 300.363 
1249 1 0.00256444 -0.0132265 0.00363435 301.983 
929 1 0.00450257 -0.0131416 0.00412055 302.526 
1137 1 0.00634469 -0.014 0.00274303 301.073 
1097 1 0.0078871 -0.0133954 0.0038635 307.296 
598 1 0.0095839 -0.014 0.0029944 301.997 
1056 1 0.0115791 -0.014 0.0031329 301.644 
747 1 0.0135702 -0.014 0.00294461 300.303 
1337 1 0.0162623 -0.0135725 0.00273454 300.144 
789 1 0.0184969 -0.014 0.00263796 301.964 
894 1 0.0203583 -0.014 0.00336963 301.299 
507 1 0.0220847 -0.0132262 0.00272104 300.651 
170 1 0.0250702 -0.014 0.00238244 300.515 
993 1 0.0240141 -0.0139722 0.00408059 303.826 
1048 1 0.0275175 -0.0134232 0.00263438 301.146 
1267 1 0.0262053 -0.014 0.00402915 300.173 
43 1 0.0295 -0.014 0.00274091 300.538 
1169 1 0.0312288 -0.014 0.00374657 301.909 
1008 1 0.0331407 -0.0134146 0.0037886 300.634 
1168 1 0.0342309 -0.014 0.00221734 300.44 
288 1 0.0350354 -0.014 0.00404837 300.72 
158 1 0.0375146 -0.014 0.00317125 300.181 
47 1 0.0406544 -0.0133617 0.00269294 301.303 
274 1 0.0425983 -0.014 0.00386091 300.353 
652 1 0.0441287 -0.014 0.00257328 300.195 
689 1 0.0463276 -0.014 0.00275222 300.204 
1184 1 0.0483371 -0.014 0.00274697 300.21 
1026 1 0.000999991 -0.0126891 0.00251021 300.719 
261 1 0.000999995 -0.011326 0.00397369 303.96 
1343 1 0.00301409 -0.0113076 0.00397475 309.202 
87 1 0.00423913 -0.0120312 0.0022356 300.321 
355 1 0.00504244 -0.0112267 0.00391614 309.539 
1208 1 0.00656471 -0.0120234 0.00253146 300.396 
22 1 0.00843274 -0.011079 0.00371936 310.514 
378 1 0.0101037 -0.0120919 0.00329275 302.217 
1220 1 0.0128444 -0.012285 0.00367402 301.331 
4 1 0.0145348 -0.0124065 0.00221646 300.487 
336 1 0.015519 -0.0118383 0.00386221 300.593 
622 1 0.0176585 -0.0122282 0.00224094 300.401 
1077 1 0.0174136 -0.0112732 0.00416425 302.446 
736 1 0.0189909 -0.012447 0.00379728 311.84 
681 1 0.0203697 -0.0122626 0.00236006 300.185 
859 1 0.022665 -0.0115618 0.00410205 307.466 
806 1 0.0239103 -0.0124121 0.00278814 302.789 
1152 1 0.0260548 -0.0120702 0.00246214 302.795 
999 1 0.0279366 -0.0119296 0.00389669 302.281 
1316 1 0.0289735 -0.011821 0.0021899 302.301 
797 1 0.029953 -0.0124734 0.00395094 302.32 
1264 1 0.0315301 -0.0122716 0.00273395 300.684 
20 1 0.0336445 -0.0118753 0.00261523 304.627 
1336 1 0.0350723 -0.0118548 0.00401562 303.099 
1126 1 0.0354465 -0.0110244 0.00213404 304.046 
233 1 0.0359508 -0.0129117 0.00256269 300.637 
450 1 0.0369507 -0.0113847 0.00340195 302.849 
160 1 0.0392319 -0.0123737 0.00369314 305.556 
724 1 0.0409925 -0.0114286 0.00230715 305.133 
876 1 0.0419024 -0.0120667 0.00396995 303.846 
872 1 0.0425493 -0.0128203 0.00223337 300.398 
704 1 0.0449215 -0.0120423 0.00276611 300.581 
945 1 0.0469145 -0.0120959 0.00292509 301.049 
221 1 0.0489219 -0.0120878 0.00278378 301.343 
1245 1 0.000999993 -0.00928449 0.00395345 308.681 
744 1 0.00199872 -0.0103191 0.00256345 303.627 
635 1 0.00390569 -0.00984746 0.00293895 307.359 
136 1 0.00590224 -0.00974057 0.00289044 307.817 
418 1 0.00782929 -0.00974667 0.00235529 306.875 
1057 1 0.0112144 -0.00913699 0.00230648 304.265 
259 1 0.0102857 -0.010154 0.00396539 313.708 
1318 1 0.0125372 -0.0106075 0.00262928 309.443 
725 1 0.0121185 -0.00937428 0.00414712 338.95 
1205 1 0.0144017 -0.00990101 0.00247217 313.841 
422 1 0.0163222 -0.0103914 0.00273907 303.023 
924 1 0.0183927 -0.0103733 0.00267041 307.077 
395 1 0.0200087 -0.0107212 0.00379621 304.489 
1195 1 0.0205045 -0.00947314 0.00231414 302.255 
500 1 0.0225748 -0.0102262 0.0026161 304.964 
213 1 0.0246572 -0.0105577 0.00272838 302.521 
909 1 0.0263344 -0.0095128 0.00242 310.024 
740 1 0.0265318 -0.0105259 0.00413308 312.799 
521 1 0.0284821 -0.00929895 0.00254496 316.027 
997 1 0.0297075 -0.0105331 0.00353251 311.023 
445 1 0.0304806 -0.00911342 0.00235493 313.75 
1261 1 0.0322714 -0.0104207 0.00289093 302.51 
529 1 0.0340991 -0.00964259 0.00265859 314.632 
277 1 0.0355513 -0.00991304 0.00402491 315.191 
124 1 0.0367214 -0.00947922 0.002462 314.75 
960 1 0.0385169 -0.0102744 0.00284128 307.707 
510 1 0.0401572 -0.0106169 0.00393302 328.895 
533 1 0.0434256 -0.0107171 0.00268929 304.234 
552 1 0.044975 -0.00945352 0.0026339 312.625 
697 1 0.0458235 -0.0106606 0.00398403 308.774 
440 1 0.0475928 -0.00981798 0.00358448 307.214 
1021 1 0.0490805 -0.0100354 0.00226562 307.663 
95 1 0.0495155 -0.0105984 0.00413479 314.388 
564 1 0.00099999 -0.00828587 0.00219099 303.775 
1178 1 0.00294431 -0.00812116 0.0026297 302.931 
1005 1 0.00493772 -0.00799531 0.00273643 320.568 
284 1 0.00642498 -0.00807971 0.00407095 325.615 
27 1 0.00807073 -0.00718883 0.00266529 331.398 
344 1 0.00938651 -0.00866083 0.00298457 315.221 
455 1 0.0105623 -0.00708018 0.00263943 328.524 
636 1 0.0124312 -0.00770239 0.00298568 315.64 
1006 1 0.0139625 -0.00858986 0.00391714 341.014 
457 1 0.0154895 -0.00790228 0.00238508 301.481 
719 1 0.0174886 -0.00898444 0.00379015 336.344 
970 1 0.0173748 -0.00710733 0.00303941 314.336 
179 1 0.019032 -0.00819104 0.00275844 324.155 
138 1 0.0218439 -0.00861733 0.00355266 322.435 
818 1 0.0203462 -0.00738063 0.00402971 380.092 
246 1 0.0236322 -0.00852863 0.00260825 307.117 
52 1 0.0251761 -0.00874884 0.00386041 330.858 
788 1 0.0270982 -0.00816529 0.00368523 323.3 
988 1 0.028116 -0.00722336 0.00224411 331.235 
490 1 0.0294674 -0.00792801 0.00361716 337.133 
84 1 0.031579 -0.00882185 0.0040007 349.459 
574 1 0.0326897 -0.00787248 0.00263506 315.125 
1270 1 0.0346324 -0.00763772 0.00222151 312.066 
890 1 0.0361877 -0.00783246 0.00346367 336.085 
51 1 0.0380266 -0.00798128 0.00269142 332.383 
631 1 0.0399048 -0.00892272 0.00234495 303.935 
96 1 0.0393912 -0.00787195 0.00414942 370.216 
511 1 0.0410111 -0.00732224 0.00280826 309.465 
466 1 0.041122 -0.00887299 0.00410041 362.214 
1303 1 0.0421003 -0.00893786 0.00235721 318.201 
958 1 0.0436162 -0.00824038 0.00345969 338.192 
801 1 0.0466159 -0.00823817 0.00279014 316.892 
12 1 0.0485517 -0.00783185 0.00249456 315.715 
1322 1 0.00166231 -0.00652449 0.00286836 315.634 
1341 1 0.00396419 -0.00627271 0.00244508 316.375 
558 1 0.00510905 -0.00651309 0.00406821 369.992 
1255 1 0.00617585 -0.0056989 0.0025853 327.569 
56 1 0.00920399 -0.00554256 0.00273928 348.962 
1328 1 0.0124008 -0.00589791 0.00386145 393.775 
981 1 0.0141383 -0.00669754 0.00326137 323.64 
63 1 0.016488 -0.00538171 0.00255375 332.499 
942 1 0.0197866 -0.00626282 0.00246853 338.447 
1115 1 0.0187325 -0.00616465 0.0041654 369.869 
394 1 0.0204476 -0.00512481 0.00397452 340.331 
433 1 0.0221624 -0.00664013 0.00363846 386.907 
1004 1 0.0238057 -0.00623755 0.0025719 342.396 
957 1 0.0256907 -0.00562412 0.0028533 319.906 
436 1 0.0276169 -0.00518118 0.0025475 355.854 
769 1 0.0283152 -0.00634638 0.0040305 403.527 
141 1 0.0300155 -0.00540323 0.00326521 356.642 
59 1 0.0319484 -0.00601689 0.00271977 328.453 
104 1 0.0339034 -0.00541545 0.00219479 323.781 
489 1 0.0353605 -0.00612222 0.00408883 358.71 
1166 1 0.0366481 -0.00613693 0.00250276 310.074 
58 1 0.0378524 -0.00653306 0.00405974 374.685 
593 1 0.0392466 -0.00639765 0.00263055 326.717 
897 1 0.041185 -0.00533196 0.00253628 352.924 
1 1 0.0428685 -0.00661072 0.0025736 315.697 
759 1 0.0446992 -0.00576291 0.00298167 336.5 
396 1 0.0462771 -0.0066257 0.00392378 350.528 
1234 1 0.0482705 -0.00512445 0.00266 330.26 
3839 1 0.0498275 -0.00635211 0.00292208 342.113 
539 1 0.000999991 -0.00463755 0.00284091 310.501 
502 1 0.0028692 -0.00496099 0.00348449 315.065 
1090 1 0.00241806 -0.00326162 0.00253127 316.089 
666 1 0.00465322 -0.00440221 0.00271947 319.829 
102 1 0.00755571 -0.00396157 0.00273142 348.592 
263 1 0.00952789 -0.00357948 0.00294262 379.032 
659 1 0.0111076 -0.00492458 0.00267413 328.705 
61 1 0.0132155 -0.00474062 0.00244835 343.484 
701 1 0.014857 -0.00485586 0.003585 365.651 
968 1 0.0144952 -0.00320426 0.00249262 351.699 
949 1 0.0164875 -0.00336364 0.00242094 341.951 
815 1 0.0184075 -0.00482756 0.00266398 339.165 
941 1 0.0219151 -0.00493099 0.00262965 332.687 
793 1 0.0203805 -0.00364863 0.00260586 346.553 
371 1 0.0217992 -0.00348212 0.00400576 405.225 
437 1 0.0237219 -0.00436751 0.00327611 328.539 
232 1 0.0256883 -0.00374046 0.00360621 350.448 
1053 1 0.0274331 -0.0032043 0.00278871 330.755 
1113 1 0.0294168 -0.00367225 0.0024619 365.982 
239 1 0.0285386 -0.00436099 0.00412155 445.983 
125 1 0.0313661 -0.00411936 0.00247416 340.507 
503 1 0.0305202 -0.00320882 0.00406428 414.536 
685 1 0.0338027 -0.00315327 0.00216831 329.187 
1183 1 0.0329001 -0.00455259 0.00369441 337.344 
607 1 0.0355435 -0.00451931 0.00290681 351.338 
670 1 0.0344352 -0.0033252 0.00406679 424.875 
337 1 0.0372277 -0.00348272 0.00320522 360.651 
1129 1 0.0385362 -0.00458563 0.00217014 328.497 
731 1 0.0397943 -0.0039422 0.00358553 398.917 
571 1 0.0429846 -0.00447594 0.00270542 329.382 
971 1 0.0428698 -0.00304037 0.00409671 424.516 
708 1 0.0447234 -0.00389631 0.00371446 347.968 
886 1 0.0466457 -0.00466918 0.00373368 331.538 
1181 1 0.0478672 -0.0031672 0.00257964 351.965 
7 1 0.000999995 -0.00224926 0.00351349 324.405 
194 1 0.00444504 -0.00241389 0.00266259 342.08 
824 1 0.00663811 -0.002199 0.00250483 346.57 
850 1 0.00789364 -0.0024833 0.00403545 361.945 
520 1 0.00878403 -0.00181657 0.00236061 362.815 
1122 1 0.011365 -0.00295271 0.00246086 362.057 
1071 1 0.0110248 -0.00157098 0.0038662 424.549 
1326 1 0.0128951 -0.00189142 0.00319063 367.647 
592 1 0.0149515 -0.00128289 0.00280888 374.874 
251 1 0.0169801 -0.001426 0.00247444 346.989 
702 1 0.0161354 -0.00228746 0.00406953 339.462 
1149 1 0.0180125 -0.00280077 0.00358607 388.862 
379 1 0.0189674 -0.00158635 0.00231587 346.894 
1284 1 0.0210353 -0.00176092 0.00269408 375.277 
794 1 0.0227832 -0.00284188 0.00238658 350.518 
448 1 0.0225297 -0.0013417 0.0039554 417.272 
1114 1 0.0242126 -0.00239472 0.00371208 402.695 
1335 1 0.0270199 -0.00120829 0.00282432 405.24 
687 1 0.0291767 -0.00168212 0.00229324 369.639 
753 1 0.0287052 -0.00236798 0.00411184 444.345 
628 1 0.0312942 -0.00143576 0.00223057 332.285 
937 1 0.0323336 -0.00265285 0.00342984 381.399 
637 1 0.0355118 -0.00215918 0.00284971 368.552 
998 1 0.0373732 -0.001489 0.00314284 357.769 
128 1 0.0393168 -0.00208354 0.00264561 346.737 
871 1 0.0411969 -0.00260098 0.00308983 326.539 
992 1 0.0426257 -0.00120919 0.00294356 349.889 
587 1 0.0438385 -0.00269671 0.00238109 356.504 
710 1 0.0445866 -0.00189194 0.0040522 427.147 
512 1 0.0461727 -0.00207084 0.00270327 320.146 
21 1 0.0478069 -0.00170423 0.00394202 436.067 
1170 1 0.0495766 -0.00258666 0.00344025 378.265 
822 1 0.000999987 -0.000473589 0.00259319 319.881 
109 1 0.0024542 -0.000832872 0.00391839 358.915 
528 1 0.00578114 -0.000842966 0.00394346 422.1 
242 1 0.00411277 -0.000225061 0.00285187 340.796 
144 1 0.00763281 -0.000245222 0.00300108 373.143 
1192 1 0.00914761 -0.000927255 0.00411472 417.479 
419 1 0.00945075 0.000512878 0.0026542 380.276 
412 1 0.0112445 -0.000305026 0.0023172 326.147 
1076 1 0.0126516 8.4254e-06 0.00379379 416.268 
62 1 0.0149188 0.000712616 0.0026792 392.079 
296 1 0.0169126 0.000567618 0.00261911 386.067 
1125 1 0.0179476 -0.000535511 0.00398153 394.984 
229 1 0.0189022 0.000404401 0.0024965 376.197 
1121 1 0.0207436 0.000143193 0.00323189 392.519 
1269 1 0.0233602 0.000450973 0.00361969 432.949 
182 1 0.0248598 -0.000777839 0.00272881 332.785 
438 1 0.0259157 0.000919027 0.00280466 417.846 
1194 1 0.0286065 0.000232978 0.00237905 376.819 
896 1 0.0318096 -0.000830484 0.00406577 432.104 
1030 1 0.0305119 0.000242498 0.00298658 384.669 
334 1 0.033172 -0.000725086 0.00260031 314.948 
19 1 0.0356439 -0.00022773 0.00234772 379.824 
65 1 0.0377027 0.000305464 0.00232351 369.264 
1120 1 0.0390534 -0.000489579 0.00382456 410.086 
1079 1 0.0395763 0.00096548 0.00255594 372.268 
1268 1 0.0407291 -0.00066785 0.0026123 363.996 
267 1 0.0425149 0.000767667 0.00266122 365.524 
307 1 0.0436758 2.84904e-05 0.00411238 447.032 
640 1 0.0445885 -0.000664407 0.00247324 379.949 
1235 1 0.0459945 0.00043435 0.00337651 374.345 
559 1 0.0474154 -0.000541394 0.0023621 329.567 
70 1 0.0493083 -0.000516063 0.00336394 390.995 
777 1 0.000999995 0.00110825 0.00381703 324.688 
471 1 0.000999996 0.00219067 0.00213525 319.892 
1043 1 0.00259936 0.0010612 0.00261711 342.262 
1165 1 0.0043985 0.00192522 0.00248846 367.201 
1342 1 0.00615918 0.00122393 0.00312734 378.618 
948 1 0.00824989 0.00209418 0.00238418 354.137 
73 1 0.00954494 0.00198347 0.0040064 421.762 
505 1 0.0109079 0.00187772 0.00253671 338.727 
921 1 0.0128894 0.00162969 0.00264707 340.721 
698 1 0.0148031 0.00263621 0.00214408 378.129 
542 1 0.0161275 0.00214771 0.00356089 385.502 
202 1 0.0179548 0.00149021 0.00405531 448.285 
1312 1 0.0198177 0.00190183 0.00345535 425.672 
1100 1 0.0218928 0.00199069 0.0026682 398.169 
902 1 0.024654 0.0020511 0.00386609 439.887 
715 1 0.0275718 0.00203697 0.00271739 416.326 
209 1 0.0292263 0.00157551 0.00374179 435.976 
68 1 0.030945 0.00242399 0.00317064 388.496 
189 1 0.0323332 0.0010903 0.00262827 348.96 
122 1 0.0331342 0.00221269 0.00408336 395.448 
1112 1 0.0343195 0.0011875 0.00284081 360.167 
1259 1 0.0371473 0.00244187 0.00221728 394.95 
570 1 0.0366618 0.0011466 0.00380976 444.321 
1070 1 0.0392343 0.0028996 0.00293307 355.441 