ITEM: TIMESTEP
21490000
ITEM: NUMBER OF ATOMS
5000
ITEM: BOX BOUNDS mm mm mm
0 0.1
-0.015 0.015
0 0.3
ITEM: ATOMS id type x y z f_Temp[0] 
977 1 0.00102825 -0.014 0.000999993 300.061 
581 1 0.00280539 -0.013082 0.000999998 300 
980 1 0.00536401 -0.0139934 0.000999992 300.087 
1252 1 0.00736682 -0.0139977 0.000999998 300 
648 1 0.00943464 -0.014 0.000999991 300.214 
1049 1 0.0114353 -0.0139954 0.000999998 300 
585 1 0.0133901 -0.0135649 0.000999998 300 
453 1 0.0153494 -0.0139698 0.000999997 300.012 
812 1 0.0173493 -0.0139999 0.000999993 300.174 
1111 1 0.0195007 -0.0134438 0.000999984 300.206 
713 1 0.021422 -0.014 0.000999994 300.055 
1065 1 0.0234048 -0.014 0.00126756 300.028 
82 1 0.0265155 -0.0139931 0.000999994 300.136 
383 1 0.0285156 -0.014 0.000999992 300.123 
930 1 0.030521 -0.014 0.000999997 300.253 
936 1 0.0322405 -0.014 0.00202133 300.311 
1185 1 0.0365621 -0.014 0.000999997 300.086 
961 1 0.0387276 -0.014 0.00158109 300.34 
397 1 0.0415067 -0.014 0.000999998 300.127 
434 1 0.0453634 -0.0139995 0.000999989 300.056 
845 1 0.0473634 -0.013996 0.000999993 300.025 
69 1 0.0493634 -0.014 0.000999998 300 
775 1 0.00100002 -0.0113754 0.000999998 300 
100 1 0.0029795 -0.0110896 0.000999992 300.416 
914 1 0.00557519 -0.0112015 0.00100005 300.606 
80 1 0.00757517 -0.0111953 0.000999991 301.228 
451 1 0.00998402 -0.0120769 0.000999996 300.817 
796 1 0.00840292 -0.0126653 0.00207425 300.292 
693 1 0.0116631 -0.012314 0.00206038 301.161 
1317 1 0.0131863 -0.0115688 0.000999987 301.232 
915 1 0.0160944 -0.0121103 0.000999994 300.323 
410 1 0.0190455 -0.011496 0.000999996 300.324 
830 1 0.0224371 -0.0122702 0.000999998 300.003 
320 1 0.0247898 -0.0125822 0.000999992 300.24 
112 1 0.0274126 -0.0122056 0.000999996 300.391 
75 1 0.0305709 -0.0120006 0.000999993 300.993 
44 1 0.0325472 -0.012308 0.000999993 300.585 
903 1 0.0346614 -0.0124727 0.000999987 300.956 
501 1 0.0399655 -0.0125406 0.000999994 300.784 
606 1 0.0381813 -0.0121244 0.00200969 301.329 
895 1 0.0424953 -0.0112468 0.000999991 301.125 
98 1 0.0440827 -0.0124633 0.000999998 300.263 
591 1 0.0463635 -0.0121888 0.000999998 300 
260 1 0.0483399 -0.0113954 0.000999988 301.111 
341 1 0.00236835 -0.00912792 0.000999989 300.928 
781 1 0.00434315 -0.00962605 0.00099999 301.439 
163 1 0.00630249 -0.00922482 0.000999992 302.703 
180 1 0.00969329 -0.0104144 0.00207298 303.72 
657 1 0.0113778 -0.0106424 0.000999994 300.756 
479 1 0.0130888 -0.00957115 0.00099999 302.207 
1334 1 0.0156328 -0.00933789 0.000999989 302.662 
236 1 0.0173021 -0.0105161 0.00100003 301.305 
463 1 0.0189969 -0.0094543 0.000999987 302.888 
1058 1 0.020961 -0.0109208 0.000999997 300.414 
214 1 0.021988 -0.00920459 0.000999991 303.157 
48 1 0.0236592 -0.010687 0.000999996 300.715 
1001 1 0.0256579 -0.0107646 0.000999989 300.859 
157 1 0.0275721 -0.0101849 0.00099999 303.37 
154 1 0.0295703 -0.010269 0.000999998 303.761 
849 1 0.0316898 -0.0101272 0.000999998 300.328 
986 1 0.0337356 -0.0106994 0.000999992 302.65 
352 1 0.0353603 -0.00937906 0.000999998 303.322 
391 1 0.037078 -0.0107965 0.00099999 302.434 
828 1 0.0380495 -0.00904828 0.000999991 306.322 
1302 1 0.0391669 -0.010707 0.000999988 301.933 
1153 1 0.0410033 -0.00991491 0.000999992 302.982 
1029 1 0.0435086 -0.00935559 0.000999995 302.711 
734 1 0.0450013 -0.0106867 0.000999997 300.638 
168 1 0.0467898 -0.0104128 0.001852 301.446 
673 1 0.0479253 -0.00900397 0.000999991 303.027 
230 1 0.00208414 -0.00710001 0.000999993 303.61 
962 1 0.00400567 -0.00765473 0.000999989 304.898 
829 1 0.00807393 -0.0082964 0.000999989 307.1 
409 1 0.0100683 -0.00814704 0.00100015 303.973 
524 1 0.0120481 -0.00786324 0.000999994 304.004 
1221 1 0.0140493 -0.00781583 0.000999998 300.159 
1092 1 0.0173393 -0.0086903 0.00181755 307.649 
461 1 0.016624 -0.00701102 0.000999992 304.06 
1062 1 0.0197951 -0.00762048 0.000999986 310.182 
790 1 0.0215614 -0.00748521 0.00192831 317.815 
200 1 0.0233297 -0.00737885 0.000999993 309.71 
602 1 0.0247258 -0.00899514 0.000999997 301.294 
546 1 0.0254076 -0.0074302 0.00204216 303.814 
1240 1 0.0269157 -0.00822994 0.000999998 300.741 
247 1 0.0292594 -0.00829331 0.00099999 308.924 
973 1 0.0315646 -0.00811889 0.00099999 305.694 
1319 1 0.0334732 -0.00871669 0.000999992 304.787 
947 1 0.0365133 -0.00779137 0.00138712 302.567 
238 1 0.0398083 -0.00744564 0.000999998 304.743 
162 1 0.0418495 -0.00748742 0.000999997 301.136 
367 1 0.0444121 -0.00769988 0.0016651 303.187 
1274 1 0.0459344 -0.00881346 0.000999986 304.006 
1074 1 0.0498521 -0.00837833 0.000999998 300 
28 1 0.0010002 -0.00541922 0.000999994 303.098 
956 1 0.00299511 -0.00525879 0.000999998 300 
134 1 0.00500411 -0.00536152 0.000999994 308.364 
825 1 0.00684751 -0.00671657 0.000999995 307.857 
976 1 0.00894151 -0.00649438 0.000999994 313.927 
169 1 0.0109715 -0.00601028 0.000999993 310.467 
556 1 0.0129962 -0.00610228 0.000999995 311.675 
421 1 0.0149261 -0.00609382 0.001525 309.317 
1217 1 0.0184323 -0.00615665 0.000999998 307.205 
1325 1 0.0210611 -0.00573796 0.000999998 300 
496 1 0.0230199 -0.00528279 0.000999996 314.107 
639 1 0.024956 -0.005784 0.00099999 313.9 
1151 1 0.0269057 -0.0062297 0.000999984 315.735 
443 1 0.028978 -0.0054405 0.000999998 300 
1231 1 0.0310305 -0.00545214 0.000999998 300 
146 1 0.0303193 -0.00698151 0.00207498 318.331 
1290 1 0.0330366 -0.00676492 0.000999997 306.143 
1075 1 0.0353259 -0.00621403 0.000999995 305.409 
618 1 0.038025 -0.00654034 0.000999998 301.019 
83 1 0.0399098 -0.00544822 0.000999985 317.16 
974 1 0.0424605 -0.00544572 0.000999991 313.5 
1289 1 0.0449382 -0.00588859 0.000999992 309.218 
772 1 0.0466402 -0.00609637 0.0020296 315.498 
530 1 0.0482999 -0.00652692 0.000999994 305.24 
283 1 0.0037105 -0.00338741 0.000999998 300 
750 1 0.00569454 -0.00311852 0.000999998 300 
234 1 0.00689912 -0.00471724 0.000999994 314.822 
1025 1 0.00808694 -0.00310808 0.000999998 300 
139 1 0.0095759 -0.00451692 0.000999998 300 
791 1 0.0119528 -0.0041857 0.000999985 325.462 
402 1 0.0153626 -0.004214 0.000999994 314.834 
1087 1 0.017357 -0.00447035 0.000999991 316.281 
519 1 0.0193899 -0.00431182 0.000999993 318.757 
275 1 0.0216938 -0.00378558 0.000999994 312.982 
142 1 0.0249492 -0.00393316 0.00175782 321.409 
90 1 0.0267754 -0.00423396 0.000999996 313.329 
492 1 0.032699 -0.00434362 0.000999993 315.183 
749 1 0.0350091 -0.00423928 0.000999994 315.732 
1187 1 0.0369358 -0.00484893 0.000999997 306.391 
175 1 0.0402006 -0.00358298 0.00166048 330.932 
1050 1 0.0420853 -0.00347573 0.000999995 311.042 
846 1 0.0439728 -0.00413701 0.000999988 316.348 
424 1 0.0456873 -0.00431841 0.00201368 316.301 
1243 1 0.0474114 -0.00430605 0.000999998 314.281 
3721 1 0.0493439 -0.00482097 0.000999988 310.601 
77 1 0.00106529 -0.00208127 0.000999998 300 
37 1 0.00269634 -0.00135299 0.00200246 326.716 
1108 1 0.00442621 -0.00130241 0.000999983 325.678 
385 1 0.0074663 -0.0011745 0.000999988 331.553 
89 1 0.0100507 -0.0025557 0.000999998 300 
318 1 0.0118586 -0.00167902 0.000999998 314.483 
32 1 0.0138228 -0.00205531 0.000999998 310.408 
964 1 0.0158217 -0.00212183 0.000999998 308.962 
1180 1 0.0177825 -0.00251614 0.000999993 316.627 
885 1 0.0201852 -0.00247261 0.000999997 319.196 
264 1 0.0220832 -0.00158202 0.000999986 330.315 
258 1 0.0241116 -0.00228266 0.001 328.72 
291 1 0.0258098 -0.00110755 0.000999998 312.271 
1052 1 0.0282802 -0.00291658 0.000999992 329.205 
486 1 0.0304223 -0.00274938 0.000999993 321.445 
401 1 0.0328101 -0.00186878 0.000999996 313.702 
91 1 0.0348112 -0.00186302 0.00099999 321.623 
1248 1 0.0364864 -0.00291987 0.00127711 312.959 
1196 1 0.0384654 -0.00283657 0.000999995 314.648 
351 1 0.0409167 -0.00183629 0.000999995 321.885 
1003 1 0.0429074 -0.00158965 0.000999997 314.319 
545 1 0.0452833 -0.00262575 0.000999997 319.102 
31 1 0.0472197 -0.00212533 0.000999991 317.007 
1027 1 0.0491105 -0.00283465 0.000999996 305.84 
620 1 0.00150677 0.000624044 0.000999984 317.435 
817 1 0.00370951 0.000569676 0.000999998 300 
127 1 0.00591125 -0.000406584 0.00199601 356.966 
306 1 0.00756563 0.000823028 0.000999994 320.292 
167 1 0.00960301 -0.000600847 0.000999992 336.432 
721 1 0.0132144 -0.000384327 0.00191523 354.025 
33 1 0.0157875 -0.000111181 0.000999998 300 
522 1 0.0178046 -0.000352056 0.000999998 300 
1330 1 0.0201725 -0.000472036 0.000999998 300 
624 1 0.0239822 -0.000286865 0.000999988 334.582 
799 1 0.0222849 0.000162791 0.00195755 362.839 
644 1 0.0278053 -0.000973797 0.000999988 339.815 
181 1 0.0267602 0.000746045 0.000999994 345.024 
289 1 0.0300684 -0.000444246 0.000999989 329.37 
899 1 0.0320249 -2.93762e-05 0.000999997 314.954 
184 1 0.0341146 1.68675e-05 0.000999998 302.681 
1191 1 0.0369447 -0.000988271 0.000999998 308.999 
625 1 0.0395926 -0.000291019 0.000999998 316.122 
250 1 0.0417007 7.81931e-06 0.000999996 328.549 
1247 1 0.0440457 0.000574472 0.000999991 328.956 
518 1 0.045939 -0.000588995 0.000999992 337.362 
198 1 0.0476838 0.000898663 0.000999998 300 
527 1 0.0488465 -0.000852146 0.000999995 315.734 
904 1 0.0494914 0.00083641 0.00185608 343.374 
305 1 0.00264916 0.00226565 0.00100002 326.808 
408 1 0.00557638 0.00129512 0.000999993 340.498 
1037 1 0.00643218 0.00282586 0.00196146 369.667 
1054 1 0.00968458 0.00225442 0.000999996 321.001 
310 1 0.0118962 0.00105151 0.000999998 305.51 
364 1 0.0129022 0.00293552 0.000999998 311.033 
392 1 0.0139525 0.00123354 0.000999991 333.051 
430 1 0.0169059 0.00174167 0.000999993 337.78 
723 1 0.0189958 0.0017279 0.000999992 328.725 
279 1 0.0209923 0.00135248 0.000999998 300 
1099 1 0.0248586 0.00295496 0.000999993 341.122 
1044 1 0.0241312 0.00141222 0.00204443 377.375 
1226 1 0.0268526 0.0027672 0.000999989 357.715 
474 1 0.0285332 0.00167963 0.000999992 335.849 
1175 1 0.0304799 0.00146998 0.0014079 343.478 
280 1 0.033244 0.0018183 0.000999998 309.989 
476 1 0.0350733 0.0024588 0.0014934 337.336 
735 1 0.0363974 0.00104339 0.000999985 346.183 
311 1 0.0384834 0.00158561 0.000999987 348.621 
562 1 0.0405308 0.00178272 0.000999989 343.245 
197 1 0.0425283 0.0018813 0.000999995 328.455 
615 1 0.0443907 0.00261031 0.000999986 342.778 
568 1 0.0458138 0.00132471 0.00156747 368.406 
1197 1 0.0497082 0.00263088 0.000999994 342.423 
366 1 0.00100063 0.00383724 0.000999997 306.799 
920 1 0.0043839 0.00326097 0.00099999 331.552 
1036 1 0.00644525 0.00457953 0.000999989 333.183 
314 1 0.00844606 0.00420097 0.000999998 300 
1224 1 0.0104826 0.00408961 0.000999992 336.053 
1124 1 0.0123036 0.0049164 0.000999992 343.194 
1286 1 0.0152051 0.00422662 0.000999983 346.599 
972 1 0.0186014 0.00369399 0.000999996 322.113 
493 1 0.0202753 0.0030119 0.00185588 373.165 
939 1 0.02075 0.00475605 0.000999988 352.433 
923 1 0.0220823 0.00307749 0.000999993 338.494 
241 1 0.0235323 0.00445514 0.00099999 351.139 
322 1 0.0254857 0.00479463 0.00147149 355.88 
485 1 0.0274261 0.00468323 0.000999995 340.797 
814 1 0.0294225 0.00456453 0.000999989 347.192 
1229 1 0.031651 0.00303909 0.000999991 339.149 
879 1 0.0329339 0.00472708 0.000999998 300 
1019 1 0.0354244 0.00436559 0.000999992 340.401 
26 1 0.0374497 0.00408388 0.000999998 300 
946 1 0.0393305 0.00340354 0.000999998 314.356 
1314 1 0.041438 0.0035651 0.000999997 333.327 
300 1 0.0429164 0.00497018 0.000999991 341.578 
757 1 0.0450353 0.00455744 0.000999996 331.414 
121 1 0.0464429 0.00313648 0.000999998 300 
2899 1 0.0491937 0.0045982 0.000999981 349.614 
235 1 0.0481355 0.00327053 0.00205706 378.226 
852 1 0.00147344 0.00578054 0.000999994 306.573 
143 1 0.00359123 0.00509717 0.000999997 327.076 
712 1 0.00611097 0.00655139 0.000999995 330.047 
857 1 0.00765647 0.00583318 0.0020467 352.514 
156 1 0.0101026 0.00606708 0.000999991 338.621 
733 1 0.0125017 0.00690655 0.000999988 347.423 
761 1 0.0142907 0.00601078 0.000999998 300 
1306 1 0.0170989 0.00501409 0.000999991 333.726 
1285 1 0.0165013 0.00696611 0.000999998 307.494 
237 1 0.0189814 0.0056897 0.000999997 328.572 
621 1 0.0222928 0.00602882 0.00099999 340.867 
1134 1 0.0242725 0.00631312 0.000999989 343.505 
1154 1 0.028986 0.0067722 0.000999991 346.068 
332 1 0.0310772 0.00569306 0.000999998 300 
404 1 0.0326452 0.00696578 0.000999994 334.546 
1299 1 0.0344553 0.0061151 0.000999994 333.481 
1088 1 0.0366774 0.00592881 0.000999988 362.435 
54 1 0.0390828 0.00538836 0.000999994 334.222 
176 1 0.0410339 0.00582837 0.000999992 335.079 
544 1 0.0455145 0.00651487 0.000999998 300 
469 1 0.0472716 0.00515104 0.000999995 328.664 
14 1 0.0486979 0.00655309 0.000999996 337.829 
741 1 0.000999996 0.00772368 0.00100003 310.672 
187 1 0.00278473 0.00862649 0.000999991 321.343 
540 1 0.00401709 0.00705129 0.000999987 325.578 
193 1 0.00477772 0.00895708 0.000999998 300 
253 1 0.0068207 0.00842122 0.000999996 326.436 
959 1 0.00850773 0.00730957 0.000999992 334.95 
328 1 0.0114071 0.00884989 0.000999998 300 
718 1 0.0132987 0.00844915 0.0019926 350.088 
978 1 0.0151909 0.00848408 0.000999991 337.673 
488 1 0.0171399 0.00893312 0.000999991 330.456 
847 1 0.0186891 0.00766823 0.000999992 332.772 
473 1 0.0206948 0.00740121 0.000999998 300 
854 1 0.0226507 0.00799697 0.000999991 346.878 
207 1 0.026375 0.00739616 0.000999998 300.096 
513 1 0.0293352 0.00896057 0.00151575 329.875 
651 1 0.0307733 0.00766986 0.000999989 334.518 
1298 1 0.0326488 0.00875108 0.00190147 332.82 
1244 1 0.0353883 0.00770327 0.00177925 366.896 
611 1 0.0372176 0.00791835 0.000999986 341.165 
730 1 0.0393602 0.00754623 0.000999997 329.708 
835 1 0.0417267 0.00744182 0.00195747 379.309 
110 1 0.0436805 0.00766014 0.000999996 331.526 
428 1 0.0469194 0.00795518 0.000999997 310.683 
174 1 0.0497579 0.00825521 0.000999987 348.789 
205 1 0.00100021 0.00991911 0.000999985 311.014 
177 1 0.00272024 0.0104073 0.001908 321.539 
674 1 0.00638342 0.0103728 0.000999989 325.392 
79 1 0.00942032 0.00908922 0.000999998 334.707 
1320 1 0.0104938 0.0103921 0.00207241 347.678 
779 1 0.012119 0.0108494 0.00100017 331.361 
292 1 0.0139551 0.0100566 0.000999991 332.078 
11 1 0.015904 0.0105056 0.00099999 326.687 
50 1 0.0188973 0.00950435 0.00176508 323.084 
1042 1 0.0207436 0.0094288 0.000999998 306.791 
694 1 0.0226224 0.0101149 0.000999989 333.089 
147 1 0.0240051 0.00907428 0.00200252 362.379 
983 1 0.0256274 0.00967679 0.000999989 330.952 
798 1 0.0278229 0.0101635 0.000999996 313.337 
966 1 0.0311269 0.00968438 0.000999995 318.214 
1186 1 0.033815 0.0102344 0.000999995 324.259 
1091 1 0.035782 0.00950263 0.000999993 337.555 
93 1 0.0382867 0.00960858 0.000999998 333.111 
1160 1 0.0399631 0.0106994 0.000999988 319.461 
575 1 0.0411762 0.00910919 0.00099999 336.038 
985 1 0.04312 0.00957997 0.000999996 319.897 
359 1 0.0453271 0.00941899 0.000999995 327.524 
969 1 0.0472618 0.00992566 0.000999998 314.435 
78 1 0.0492059 0.0103951 0.000999992 316.353 
363 1 0.000999994 0.0125472 0.000999995 303.606 
811 1 0.00296408 0.0122886 0.00127469 311.463 
743 1 0.00449491 0.0110312 0.000999993 312.903 
1251 1 0.00600936 0.0123375 0.000999995 310.841 
72 1 0.009055 0.0112752 0.000999994 321.217 
1313 1 0.0110293 0.0125265 0.00099999 317.494 
654 1 0.0139151 0.0120596 0.000999989 323.118 
271 1 0.0178307 0.0110466 0.000999998 300 
15 1 0.0191506 0.0123316 0.00178965 318.48 
215 1 0.0208644 0.0116686 0.00099999 318.461 
420 1 0.0226323 0.0118976 0.00190669 324.539 
449 1 0.0244554 0.012149 0.000999998 309.116 
39 1 0.0263672 0.0115349 0.000999992 315.259 
188 1 0.0295985 0.0111181 0.000999991 322.641 
425 1 0.028129 0.0124814 0.000999992 307.764 
1095 1 0.0312193 0.01229 0.000999998 300.001 
1227 1 0.033219 0.0122468 0.000999995 313.706 
119 1 0.035345 0.0122919 0.000999998 300 
650 1 0.0369685 0.0111127 0.000999989 325.972 
1138 1 0.0386186 0.0122428 0.000999992 319.17 
979 1 0.0405124 0.0124274 0.00184388 329.57 
316 1 0.0424181 0.0117033 0.000999998 308.863 
1297 1 0.0443447 0.0111611 0.00099999 325.024 
1206 1 0.046545 0.0118446 0.000999993 321.11 
380 1 0.0484365 0.0121497 0.00157368 313.205 
347 1 0.00209295 0.014 0.00183359 303.729 
309 1 0.00396196 0.014 0.000999998 304.869 
1130 1 0.00566062 0.014 0.00205571 311.556 
807 1 0.00735927 0.014 0.000999991 307.383 
114 1 0.00931258 0.0135525 0.000999993 308.887 
240 1 0.0123816 0.014 0.000999997 307.189 
672 1 0.0144052 0.014 0.000999998 304.299 
729 1 0.0161846 0.014 0.00191321 313.822 
758 1 0.0179409 0.0137147 0.000999996 308.88 
1038 1 0.0199206 0.014 0.000999993 307.457 
81 1 0.0217812 0.0139926 0.00173331 312.919 
676 1 0.0236419 0.0139761 0.000999994 306.95 
534 1 0.0264765 0.0137807 0.000999998 300 
526 1 0.0299137 0.014 0.000999997 302.982 
101 1 0.0322566 0.014 0.000999994 307.535 
1304 1 0.0342566 0.014 0.00099999 309.45 
1171 1 0.0370586 0.0139144 0.000999998 300 
442 1 0.0396097 0.014 0.000999989 315.026 
348 1 0.0423172 0.0137135 0.000999998 300 
626 1 0.0443208 0.014 0.000999994 307.701 
935 1 0.0466469 0.0139506 0.000999998 300 
766 1 0.0489339 0.014 0.000999995 308.367 
728 1 0.00392052 -0.014 0.00238429 300.179 
1249 1 0.00256444 -0.0132265 0.00363435 300.92 
929 1 0.00450257 -0.0131416 0.00412055 301.251 
1137 1 0.00634469 -0.014 0.00274303 300.481 
1097 1 0.0078871 -0.0133954 0.0038635 303.909 
598 1 0.0095839 -0.014 0.0029944 300.913 
1056 1 0.0115791 -0.014 0.0031329 300.773 
747 1 0.0135702 -0.014 0.00294461 300.143 
1337 1 0.0162623 -0.0135725 0.00273454 300.081 
789 1 0.0184969 -0.014 0.00263796 300.911 
894 1 0.0203583 -0.014 0.00336963 300.571 
507 1 0.0220847 -0.0132262 0.00272104 300.33 
170 1 0.0250702 -0.014 0.00238244 300.243 
993 1 0.0240141 -0.0139722 0.00408059 301.913 
1048 1 0.0275175 -0.0134232 0.00263438 300.575 
1267 1 0.0262053 -0.014 0.00402915 300.088 
43 1 0.0295 -0.014 0.00274091 300.329 
1169 1 0.0312288 -0.014 0.00374657 301.076 
1008 1 0.0331407 -0.0134146 0.0037886 300.381 
1168 1 0.0342309 -0.014 0.00221734 300.286 
288 1 0.0350354 -0.014 0.00404837 300.4 
158 1 0.0375146 -0.014 0.00317125 300.122 
47 1 0.0406544 -0.0133617 0.00269294 300.772 
274 1 0.0425983 -0.014 0.00386091 300.168 
652 1 0.0441287 -0.014 0.00257328 300.104 
689 1 0.0463276 -0.014 0.00275222 300.122 
1184 1 0.0483371 -0.014 0.00274697 300.123 
1026 1 0.000999991 -0.0126891 0.00251021 300.336 
261 1 0.000999995 -0.011326 0.00397369 302.007 
1343 1 0.00301409 -0.0113076 0.00397475 305.082 
87 1 0.00423913 -0.0120312 0.0022356 300.224 
355 1 0.00504244 -0.0112267 0.00391614 305.521 
1208 1 0.00656471 -0.0120234 0.00253146 300.25 
22 1 0.00843274 -0.011079 0.00371936 306.357 
378 1 0.0101037 -0.0120919 0.00329275 301.26 
1220 1 0.0128444 -0.012285 0.00367402 300.869 
4 1 0.0145348 -0.0124065 0.00221646 300.325 
336 1 0.015519 -0.0118383 0.00386221 300.392 
622 1 0.0176585 -0.0122282 0.00224094 300.233 
1077 1 0.0174136 -0.0112732 0.00416425 301.36 
736 1 0.0189909 -0.012447 0.00379728 305.768 
681 1 0.0203697 -0.0122626 0.00236006 300.12 
859 1 0.022665 -0.0115618 0.00410205 303.966 
806 1 0.0239103 -0.0124121 0.00278814 301.453 
1152 1 0.0260548 -0.0120702 0.00246214 301.458 
999 1 0.0279366 -0.0119296 0.00389669 301.35 
1316 1 0.0289735 -0.011821 0.0021899 301.513 
797 1 0.029953 -0.0124734 0.00395094 301.513 
1264 1 0.0315301 -0.0122716 0.00273395 300.501 
20 1 0.0336445 -0.0118753 0.00261523 302.924 
1336 1 0.0350723 -0.0118548 0.00401562 302.225 
1126 1 0.0354465 -0.0110244 0.00213404 302.958 
233 1 0.0359508 -0.0129117 0.00256269 300.459 
450 1 0.0369507 -0.0113847 0.00340195 301.701 
160 1 0.0392319 -0.0123737 0.00369314 303.435 
724 1 0.0409925 -0.0114286 0.00230715 303.36 
876 1 0.0419024 -0.0120667 0.00396995 302.279 
872 1 0.0425493 -0.0128203 0.00223337 300.239 
704 1 0.0449215 -0.0120423 0.00276611 300.354 
945 1 0.0469145 -0.0120959 0.00292509 300.653 
221 1 0.0489219 -0.0120878 0.00278378 300.835 
1245 1 0.000999993 -0.00928449 0.00395345 305.14 
744 1 0.00199872 -0.0103191 0.00256345 301.964 
635 1 0.00390569 -0.00984746 0.00293895 304.276 
136 1 0.00590224 -0.00974057 0.00289044 305.544 
418 1 0.00782929 -0.00974667 0.00235529 305.069 
1057 1 0.0112144 -0.00913699 0.00230648 303.301 
259 1 0.0102857 -0.010154 0.00396539 308.381 
1318 1 0.0125372 -0.0106075 0.00262928 305.782 
725 1 0.0121185 -0.00937428 0.00414712 326.047 
1205 1 0.0144017 -0.00990101 0.00247217 307.787 
422 1 0.0163222 -0.0103914 0.00273907 301.77 
924 1 0.0183927 -0.0103733 0.00267041 304.272 
395 1 0.0200087 -0.0107212 0.00379621 302.635 
1195 1 0.0205045 -0.00947314 0.00231414 301.567 
500 1 0.0225748 -0.0102262 0.0026161 303.115 
213 1 0.0246572 -0.0105577 0.00272838 301.642 
909 1 0.0263344 -0.0095128 0.00242 306.854 
740 1 0.0265318 -0.0105259 0.00413308 307.968 
521 1 0.0284821 -0.00929895 0.00254496 311.455 
997 1 0.0297075 -0.0105331 0.00353251 307.164 
445 1 0.0304806 -0.00911342 0.00235493 309.618 
1261 1 0.0322714 -0.0104207 0.00289093 301.893 
529 1 0.0340991 -0.00964259 0.00265859 311.038 
277 1 0.0355513 -0.00991304 0.00402491 311.112 
124 1 0.0367214 -0.00947922 0.002462 310.642 
960 1 0.0385169 -0.0102744 0.00284128 304.671 
510 1 0.0401572 -0.0106169 0.00393302 318.549 
533 1 0.0434256 -0.0107171 0.00268929 302.828 
552 1 0.044975 -0.00945352 0.0026339 309.176 
697 1 0.0458235 -0.0106606 0.00398403 305.606 
440 1 0.0475928 -0.00981798 0.00358448 304.93 
1021 1 0.0490805 -0.0100354 0.00226562 305.61 
95 1 0.0495155 -0.0105984 0.00413479 310.903 
564 1 0.00099999 -0.00828587 0.00219099 302.764 
1178 1 0.00294431 -0.00812116 0.0026297 302.113 
1005 1 0.00493772 -0.00799531 0.00273643 315.457 
284 1 0.00642498 -0.00807971 0.00407095 319.382 
27 1 0.00807073 -0.00718883 0.00266529 326.383 
344 1 0.00938651 -0.00866083 0.00298457 311.798 
455 1 0.0105623 -0.00708018 0.00263943 322.939 
636 1 0.0124312 -0.00770239 0.00298568 311.373 
1006 1 0.0139625 -0.00858986 0.00391714 327.258 
457 1 0.0154895 -0.00790228 0.00238508 301.093 
719 1 0.0174886 -0.00898444 0.00379015 324.841 
970 1 0.0173748 -0.00710733 0.00303941 310.912 
179 1 0.019032 -0.00819104 0.00275844 317.123 
138 1 0.0218439 -0.00861733 0.00355266 314.817 
818 1 0.0203462 -0.00738063 0.00402971 362.896 
246 1 0.0236322 -0.00852863 0.00260825 305.023 
52 1 0.0251761 -0.00874884 0.00386041 323.197 
788 1 0.0270982 -0.00816529 0.00368523 315.849 
988 1 0.028116 -0.00722336 0.00224411 324.624 
490 1 0.0294674 -0.00792801 0.00361716 329.396 
84 1 0.031579 -0.00882185 0.0040007 332.2 
574 1 0.0326897 -0.00787248 0.00263506 311.532 
1270 1 0.0346324 -0.00763772 0.00222151 309.021 
890 1 0.0361877 -0.00783246 0.00346367 326.747 
51 1 0.0380266 -0.00798128 0.00269142 324.748 
631 1 0.0399048 -0.00892272 0.00234495 302.722 
96 1 0.0393912 -0.00787195 0.00414942 352.247 
511 1 0.0410111 -0.00732224 0.00280826 306.85 
466 1 0.041122 -0.00887299 0.00410041 344.664 
1303 1 0.0421003 -0.00893786 0.00235721 313.217 
958 1 0.0436162 -0.00824038 0.00345969 328.306 
801 1 0.0466159 -0.00823817 0.00279014 312.544 
12 1 0.0485517 -0.00783185 0.00249456 312.215 
1322 1 0.00166231 -0.00652449 0.00286836 311.193 
1341 1 0.00396419 -0.00627271 0.00244508 311.903 
558 1 0.00510905 -0.00651309 0.00406821 355.524 
1255 1 0.00617585 -0.0056989 0.0025853 322.358 
56 1 0.00920399 -0.00554256 0.00273928 342.479 
1328 1 0.0124008 -0.00589791 0.00386145 377.236 
981 1 0.0141383 -0.00669754 0.00326137 317.388 
63 1 0.016488 -0.00538171 0.00255375 326.691 
942 1 0.0197866 -0.00626282 0.00246853 331.256 
1115 1 0.0187325 -0.00616465 0.0041654 359.268 
394 1 0.0204476 -0.00512481 0.00397452 335.936 
433 1 0.0221624 -0.00664013 0.00363846 369.346 
1004 1 0.0238057 -0.00623755 0.0025719 333.464 
957 1 0.0256907 -0.00562412 0.0028533 316.633 
436 1 0.0276169 -0.00518118 0.0025475 348.907 
769 1 0.0283152 -0.00634638 0.0040305 384.944 
141 1 0.0300155 -0.00540323 0.00326521 348.253 
59 1 0.0319484 -0.00601689 0.00271977 324.131 
104 1 0.0339034 -0.00541545 0.00219479 320.87 
489 1 0.0353605 -0.00612222 0.00408883 346.618 
1166 1 0.0366481 -0.00613693 0.00250276 308.655 
58 1 0.0378524 -0.00653306 0.00405974 362.259 
593 1 0.0392466 -0.00639765 0.00263055 321.379 
897 1 0.041185 -0.00533196 0.00253628 346.571 
1 1 0.0428685 -0.00661072 0.0025736 311.724 
759 1 0.0446992 -0.00576291 0.00298167 329.553 
396 1 0.0462771 -0.0066257 0.00392378 340.38 
1234 1 0.0482705 -0.00512445 0.00266 325.622 
3839 1 0.0498275 -0.00635211 0.00292208 335.72 
539 1 0.000999991 -0.00463755 0.00284091 309.037 
502 1 0.0028692 -0.00496099 0.00348449 312.77 
1090 1 0.00241806 -0.00326162 0.00253127 314.635 
666 1 0.00465322 -0.00440221 0.00271947 317.762 
102 1 0.00755571 -0.00396157 0.00273142 342.566 
263 1 0.00952789 -0.00357948 0.00294262 372.465 
659 1 0.0111076 -0.00492458 0.00267413 326.027 
61 1 0.0132155 -0.00474062 0.00244835 337.063 
701 1 0.014857 -0.00485586 0.003585 356.118 
968 1 0.0144952 -0.00320426 0.00249262 346.934 
949 1 0.0164875 -0.00336364 0.00242094 338.491 
815 1 0.0184075 -0.00482756 0.00266398 333.965 
941 1 0.0219151 -0.00493099 0.00262965 327.604 
793 1 0.0203805 -0.00364863 0.00260586 342.713 
371 1 0.0217992 -0.00348212 0.00400576 392.738 
437 1 0.0237219 -0.00436751 0.00327611 323.871 
232 1 0.0256883 -0.00374046 0.00360621 345.034 
1053 1 0.0274331 -0.0032043 0.00278871 326.782 
1113 1 0.0294168 -0.00367225 0.0024619 359.057 
239 1 0.0285386 -0.00436099 0.00412155 432.841 
125 1 0.0313661 -0.00411936 0.00247416 336.605 
503 1 0.0305202 -0.00320882 0.00406428 405.36 
685 1 0.0338027 -0.00315327 0.00216831 326.777 
1183 1 0.0329001 -0.00455259 0.00369441 333.764 
607 1 0.0355435 -0.00451931 0.00290681 345.396 
670 1 0.0344352 -0.0033252 0.00406679 415.129 
337 1 0.0372277 -0.00348272 0.00320522 354.889 
1129 1 0.0385362 -0.00458563 0.00217014 324.564 
731 1 0.0397943 -0.0039422 0.00358553 389.051 
571 1 0.0429846 -0.00447594 0.00270542 324.875 
971 1 0.0428698 -0.00304037 0.00409671 415.717 
708 1 0.0447234 -0.00389631 0.00371446 341.007 
886 1 0.0466457 -0.00466918 0.00373368 326.55 
1181 1 0.0478672 -0.0031672 0.00257964 347.883 
7 1 0.000999995 -0.00224926 0.00351349 323.227 
194 1 0.00444504 -0.00241389 0.00266259 339.305 
824 1 0.00663811 -0.002199 0.00250483 343.15 
850 1 0.00789364 -0.0024833 0.00403545 358.291 
520 1 0.00878403 -0.00181657 0.00236061 359.941 
1122 1 0.011365 -0.00295271 0.00246086 358.275 
1071 1 0.0110248 -0.00157098 0.0038662 421.008 
1326 1 0.0128951 -0.00189142 0.00319063 362.094 
592 1 0.0149515 -0.00128289 0.00280888 370.923 
251 1 0.0169801 -0.001426 0.00247444 343.939 
702 1 0.0161354 -0.00228746 0.00406953 335.962 
1149 1 0.0180125 -0.00280077 0.00358607 383.469 
379 1 0.0189674 -0.00158635 0.00231587 344.054 
1284 1 0.0210353 -0.00176092 0.00269408 370.887 
794 1 0.0227832 -0.00284188 0.00238658 345.056 
448 1 0.0225297 -0.0013417 0.0039554 411.907 
1114 1 0.0242126 -0.00239472 0.00371208 394.726 
1335 1 0.0270199 -0.00120829 0.00282432 399.858 
687 1 0.0291767 -0.00168212 0.00229324 364.995 
753 1 0.0287052 -0.00236798 0.00411184 436.514 
628 1 0.0312942 -0.00143576 0.00223057 329.758 
937 1 0.0323336 -0.00265285 0.00342984 376.533 
637 1 0.0355118 -0.00215918 0.00284971 363.323 
998 1 0.0373732 -0.001489 0.00314284 353.058 
128 1 0.0393168 -0.00208354 0.00264561 342.932 
871 1 0.0411969 -0.00260098 0.00308983 322.924 
992 1 0.0426257 -0.00120919 0.00294356 345.578 
587 1 0.0438385 -0.00269671 0.00238109 351.24 
710 1 0.0445866 -0.00189194 0.0040522 419.416 
512 1 0.0461727 -0.00207084 0.00270327 317.517 
21 1 0.0478069 -0.00170423 0.00394202 430.592 
1170 1 0.0495766 -0.00258666 0.00344025 372.868 
822 1 0.000999987 -0.000473589 0.00259319 318.991 
109 1 0.0024542 -0.000832872 0.00391839 357.441 
528 1 0.00578114 -0.000842966 0.00394346 420.713 
242 1 0.00411277 -0.000225061 0.00285187 338.702 
144 1 0.00763281 -0.000245222 0.00300108 370.508 
1192 1 0.00914761 -0.000927255 0.00411472 415.081 
419 1 0.00945075 0.000512878 0.0026542 377.737 
412 1 0.0112445 -0.000305026 0.0023172 324.382 
1076 1 0.0126516 8.42539e-06 0.00379379 411.475 
62 1 0.0149188 0.000712616 0.0026792 388.859 
296 1 0.0169126 0.000567618 0.00261911 383.211 
1125 1 0.0179476 -0.000535511 0.00398153 390.381 
229 1 0.0189022 0.000404401 0.0024965 373.131 
1121 1 0.0207436 0.000143193 0.00323189 389.091 
1269 1 0.0233602 0.000450973 0.00361969 428.699 
182 1 0.0248598 -0.000777839 0.00272881 329.734 
438 1 0.0259157 0.000919027 0.00280466 414.572 
1194 1 0.0286065 0.000232978 0.00237905 373.444 
896 1 0.0318096 -0.000830484 0.00406577 427.268 
1030 1 0.0305119 0.000242498 0.00298658 380.871 
334 1 0.033172 -0.000725086 0.00260031 313.353 
19 1 0.0356439 -0.00022773 0.00234772 376.014 
65 1 0.0377027 0.000305464 0.00232351 365.819 
1120 1 0.0390534 -0.000489579 0.00382456 404.403 
1079 1 0.0395763 0.00096548 0.00255594 368.65 
1268 1 0.0407291 -0.00066785 0.0026123 360.029 
267 1 0.0425149 0.000767667 0.00266122 362.021 
307 1 0.0436758 2.84904e-05 0.00411238 443.41 
640 1 0.0445885 -0.000664407 0.00247324 375.508 
1235 1 0.0459945 0.00043435 0.00337651 370.545 
559 1 0.0474154 -0.000541394 0.0023621 327.045 
70 1 0.0493083 -0.000516063 0.00336394 385.318 
777 1 0.000999995 0.00110825 0.00381703 323.737 
471 1 0.000999996 0.00219067 0.00213525 319.162 
1043 1 0.00259936 0.0010612 0.00261711 340.636 
1165 1 0.0043985 0.00192522 0.00248846 365.823 
1342 1 0.00615918 0.00122393 0.00312734 376.315 
948 1 0.00824989 0.00209418 0.00238418 351.813 
73 1 0.00954494 0.00198347 0.0040064 419.147 
505 1 0.0109079 0.00187772 0.00253671 336.384 
921 1 0.0128894 0.00162969 0.00264707 338.148 
698 1 0.0148031 0.00263621 0.00214408 375.911 
542 1 0.0161275 0.00214771 0.00356089 383.3 
202 1 0.0179548 0.00149021 0.00405531 446.673 
1312 1 0.0198177 0.00190183 0.00345535 423.067 
1100 1 0.0218928 0.00199069 0.0026682 395.567 
902 1 0.024654 0.0020511 0.00386609 437.834 
715 1 0.0275718 0.00203697 0.00271739 413.233 
209 1 0.0292263 0.00157551 0.00374179 432.051 
68 1 0.030945 0.00242399 0.00317064 384.784 
189 1 0.0323332 0.0010903 0.00262827 345.771 
122 1 0.0331342 0.00221269 0.00408336 391.049 
1112 1 0.0343195 0.0011875 0.00284081 356.43 
1259 1 0.0371473 0.00244187 0.00221728 392.6 
570 1 0.0366618 0.0011466 0.00380976 440.543 
1070 1 0.0392343 0.0028996 0.00293307 352.347 