ITEM: TIMESTEP
17030000
ITEM: NUMBER OF ATOMS
5000
ITEM: BOX BOUNDS mm mm mm
0 0.1
-0.015 0.015
0 0.3
ITEM: ATOMS id type x y z f_Temp[0] 
977 1 0.00102825 -0.014 0.000999993 300.006 
581 1 0.00280537 -0.013082 0.000999998 300 
980 1 0.00536401 -0.0139934 0.000999992 300.005 
1252 1 0.0073668 -0.0139976 0.000999998 300 
648 1 0.00943464 -0.014 0.000999991 300.022 
1049 1 0.0114353 -0.0139953 0.000999998 300 
585 1 0.0133901 -0.013565 0.000999998 300 
453 1 0.0153494 -0.0139699 0.000999997 300.001 
812 1 0.0173493 -0.0139998 0.000999993 300.018 
1111 1 0.0195007 -0.0134438 0.000999984 300.021 
713 1 0.021422 -0.014 0.000999994 300.003 
1065 1 0.0234048 -0.014 0.00126756 300.002 
82 1 0.0265155 -0.0139931 0.000999994 300.008 
383 1 0.0285156 -0.014 0.000999992 300.007 
930 1 0.030521 -0.014 0.000999997 300.035 
936 1 0.0322405 -0.014 0.00202133 300.035 
1185 1 0.0365621 -0.014 0.000999997 300.01 
961 1 0.0387276 -0.014 0.00158109 300.025 
397 1 0.0415067 -0.014 0.000999998 300.005 
434 1 0.0453634 -0.0139995 0.000999989 300.003 
845 1 0.0473634 -0.013996 0.000999993 300.001 
69 1 0.0493634 -0.014 0.000999998 300 
775 1 0.00100002 -0.0113754 0.000999998 300 
100 1 0.0029795 -0.0110896 0.000999992 300.066 
914 1 0.00557519 -0.0112015 0.00100005 300.12 
80 1 0.00757517 -0.0111953 0.000999991 300.319 
451 1 0.00998402 -0.0120769 0.000999996 300.157 
796 1 0.00840292 -0.0126653 0.00207425 300.049 
693 1 0.0116631 -0.012314 0.00206038 300.189 
1317 1 0.0131863 -0.0115688 0.000999987 300.228 
915 1 0.0160944 -0.0121103 0.000999994 300.049 
410 1 0.0190455 -0.011496 0.000999996 300.05 
830 1 0.0224371 -0.0122702 0.000999998 300 
320 1 0.0247898 -0.0125822 0.000999992 300.014 
112 1 0.0274126 -0.0122056 0.000999996 300.036 
75 1 0.0305709 -0.0120006 0.000999993 300.167 
44 1 0.0325472 -0.012308 0.000999993 300.104 
903 1 0.0346614 -0.0124727 0.000999987 300.146 
501 1 0.0399655 -0.0125406 0.000999994 300.047 
606 1 0.0381813 -0.0121244 0.00200969 300.112 
895 1 0.0424953 -0.0112468 0.000999991 300.072 
98 1 0.0440827 -0.0124633 0.000999998 300.018 
591 1 0.0463611 -0.0121903 0.000999998 300 
260 1 0.0483399 -0.0113954 0.000999988 300.086 
341 1 0.00236835 -0.00912792 0.000999989 300.221 
781 1 0.00434315 -0.00962605 0.00099999 300.346 
163 1 0.00630249 -0.00922482 0.000999992 300.918 
180 1 0.00969329 -0.0104144 0.00207298 300.883 
657 1 0.0113778 -0.0106424 0.000999994 300.133 
479 1 0.0130888 -0.00957115 0.00099999 300.474 
1334 1 0.0156328 -0.00933789 0.000999989 300.459 
236 1 0.0173021 -0.0105161 0.00100003 300.234 
463 1 0.0189969 -0.0094543 0.000999987 300.659 
1058 1 0.020961 -0.0109208 0.000999997 300.077 
214 1 0.021988 -0.00920459 0.000999991 300.68 
48 1 0.0236592 -0.010687 0.000999996 300.092 
1001 1 0.0256579 -0.0107646 0.000999989 300.117 
157 1 0.0275721 -0.0101849 0.00099999 300.624 
154 1 0.0295703 -0.010269 0.000999998 300.746 
849 1 0.03169 -0.0101268 0.000999998 300.054 
986 1 0.0337356 -0.0106994 0.000999992 300.569 
352 1 0.0353603 -0.00937906 0.000999998 300.514 
391 1 0.037078 -0.0107965 0.00099999 300.327 
828 1 0.0380495 -0.00904828 0.000999991 300.818 
1302 1 0.0391669 -0.010707 0.000999988 300.185 
1153 1 0.0410033 -0.00991491 0.000999992 300.256 
1029 1 0.0435086 -0.00935559 0.000999995 300.257 
734 1 0.0450013 -0.0106867 0.000999997 300.057 
168 1 0.0467898 -0.0104128 0.001852 300.146 
673 1 0.0479253 -0.00900397 0.000999991 300.362 
230 1 0.00208414 -0.00710001 0.000999993 301.167 
962 1 0.00400567 -0.00765473 0.000999989 301.636 
829 1 0.00807393 -0.0082964 0.000999989 303.036 
409 1 0.0100683 -0.00814704 0.00100015 301.276 
524 1 0.0120481 -0.00786324 0.000999994 301.438 
1221 1 0.0140493 -0.00781585 0.000999998 300.023 
1092 1 0.0173393 -0.0086903 0.00181755 301.364 
461 1 0.016624 -0.00701102 0.000999992 301.116 
1062 1 0.0197951 -0.00762048 0.000999986 303.126 
790 1 0.0215614 -0.00748521 0.00192831 304.097 
200 1 0.0233297 -0.00737885 0.000999993 302.154 
602 1 0.0247258 -0.00899514 0.000999997 300.224 
546 1 0.0254076 -0.0074302 0.00204216 300.927 
1240 1 0.0269157 -0.00822994 0.000999998 300.127 
247 1 0.0292594 -0.00829331 0.00099999 302.365 
973 1 0.0315646 -0.00811889 0.00099999 301.412 
1319 1 0.0334732 -0.00871669 0.000999992 301.043 
947 1 0.0365133 -0.00779137 0.00138712 300.648 
238 1 0.0398083 -0.00744564 0.000999998 301.125 
162 1 0.0418494 -0.00748752 0.000999997 300.149 
367 1 0.0444121 -0.00769988 0.0016651 300.492 
1274 1 0.0459344 -0.00881346 0.000999986 300.439 
1074 1 0.049851 -0.00837742 0.000999998 300 
28 1 0.0010002 -0.00541922 0.000999994 301.323 
956 1 0.00299489 -0.00525835 0.000999998 300 
134 1 0.00500411 -0.00536152 0.000999994 302.879 
825 1 0.00684751 -0.00671657 0.000999995 302.957 
976 1 0.00894151 -0.00649438 0.000999994 307.118 
169 1 0.0109715 -0.00601028 0.000999993 304.251 
556 1 0.0129962 -0.00610228 0.000999995 305.084 
421 1 0.0149261 -0.00609382 0.001525 303.347 
1217 1 0.0184323 -0.00615665 0.000999998 302.543 
1325 1 0.0210601 -0.00573631 0.000999998 300 
496 1 0.0230199 -0.00528279 0.000999996 304.397 
639 1 0.024956 -0.005784 0.00099999 304.112 
1151 1 0.0269057 -0.0062297 0.000999984 305.802 
443 1 0.0289819 -0.00545692 0.000999998 300 
1231 1 0.0310307 -0.00545222 0.000999998 300 
146 1 0.0303193 -0.00698151 0.00207498 305.816 
1290 1 0.0330366 -0.00676492 0.000999997 301.971 
1075 1 0.0353259 -0.00621403 0.000999995 301.78 
618 1 0.038025 -0.00654034 0.000999998 300.203 
83 1 0.0399098 -0.00544822 0.000999985 304.88 
974 1 0.0424605 -0.00544572 0.000999991 303.3 
1289 1 0.0449382 -0.00588859 0.000999992 301.928 
772 1 0.0466402 -0.00609637 0.0020296 302.911 
530 1 0.0482999 -0.00652692 0.000999994 300.819 
283 1 0.00371073 -0.00338746 0.000999998 300 
750 1 0.00569466 -0.00311859 0.000999998 300 
234 1 0.00689912 -0.00471724 0.000999994 306.67 
1025 1 0.00808661 -0.0031078 0.000999998 300 
139 1 0.00957717 -0.00451694 0.000999998 300 
791 1 0.0119528 -0.0041857 0.000999985 314.873 
402 1 0.0153626 -0.004214 0.000999994 307.422 
1087 1 0.017357 -0.00447035 0.000999991 307.339 
519 1 0.0193899 -0.00431182 0.000999993 309.047 
275 1 0.0216938 -0.00378558 0.000999994 305.608 
142 1 0.0249492 -0.00393316 0.00175782 308.727 
90 1 0.0267754 -0.00423396 0.000999996 305.301 
492 1 0.032699 -0.00434362 0.000999993 306.895 
749 1 0.0350091 -0.00423928 0.000999994 307.276 
1187 1 0.0369358 -0.00484893 0.000999997 302.153 
175 1 0.0402006 -0.00358298 0.00166048 310.42 
1050 1 0.0420853 -0.00347573 0.000999995 303.407 
846 1 0.0439728 -0.00413701 0.000999988 306.17 
424 1 0.0456873 -0.00431841 0.00201368 304.447 
1243 1 0.0474114 -0.00430605 0.000999998 305.753 
3721 1 0.0493439 -0.00482097 0.000999988 303.249 
77 1 0.00106396 -0.00207332 0.000999998 300 
37 1 0.00269634 -0.00135299 0.00200246 316.659 
1108 1 0.00442621 -0.00130241 0.000999983 317.036 
385 1 0.0074663 -0.0011745 0.000999988 322.329 
89 1 0.0100508 -0.00255545 0.000999998 300 
318 1 0.0118586 -0.00167902 0.000999998 307.723 
32 1 0.0138228 -0.00205531 0.000999998 304.842 
964 1 0.0158217 -0.00212183 0.000999998 304.05 
1180 1 0.0177825 -0.00251614 0.000999993 308.735 
885 1 0.0201852 -0.00247261 0.000999997 310.06 
264 1 0.0220832 -0.00158202 0.000999986 316.811 
258 1 0.0241116 -0.00228266 0.001 314.154 
291 1 0.0258098 -0.00110755 0.000999998 305.381 
1052 1 0.0282802 -0.00291658 0.000999992 315.543 
486 1 0.0304223 -0.00274938 0.000999993 309.777 
401 1 0.0328101 -0.00186878 0.000999996 306.182 
91 1 0.0348112 -0.00186302 0.00099999 311.869 
1248 1 0.0364864 -0.00291987 0.00127711 305.361 
1196 1 0.0384654 -0.00283657 0.000999995 306.438 
351 1 0.0409167 -0.00183629 0.000999995 309.978 
1003 1 0.0429073 -0.00158975 0.000999997 305.833 
545 1 0.0452833 -0.00262575 0.000999997 308.144 
31 1 0.0472197 -0.00212533 0.000999991 308.094 
1027 1 0.0491105 -0.00283465 0.000999996 302.232 
620 1 0.00150677 0.000624044 0.000999984 311.328 
817 1 0.00370993 0.000569586 0.000999998 300 
127 1 0.00591125 -0.000406584 0.00199601 343.984 
306 1 0.00756563 0.000823028 0.000999994 312.967 
167 1 0.00960301 -0.000600847 0.000999992 324.965 
721 1 0.0132144 -0.000384327 0.00191523 331.339 
33 1 0.0157863 -0.000111565 0.000999998 300 
522 1 0.0178032 -0.000349045 0.000999998 300 
1330 1 0.0201726 -0.000472068 0.000999998 300 
624 1 0.0239822 -0.000286865 0.000999988 322.097 
799 1 0.0222849 0.000162791 0.00195755 341.866 
644 1 0.0278053 -0.000973797 0.000999988 325.738 
181 1 0.0267602 0.000746254 0.000999994 329.458 
289 1 0.0300684 -0.000444246 0.000999989 317.167 
899 1 0.0320249 -2.93762e-05 0.000999997 307.094 
184 1 0.0341146 1.68966e-05 0.000999998 300.916 
1191 1 0.0369446 -0.000988214 0.000999998 304.577 
625 1 0.0395843 -0.000291099 0.000999998 308.207 
250 1 0.0417007 7.81932e-06 0.000999996 315.694 
1247 1 0.0440455 0.000574381 0.000999991 316.993 
518 1 0.045939 -0.000588995 0.000999992 324.207 
198 1 0.0476838 0.000898621 0.000999998 300 
527 1 0.0488465 -0.000852146 0.000999995 308.271 
904 1 0.0494914 0.00083641 0.00185608 326.328 
305 1 0.00264916 0.00226565 0.00100002 318.229 
408 1 0.00557638 0.00129512 0.000999993 330.142 
1037 1 0.00643218 0.00282586 0.00196146 354.58 
1054 1 0.00968458 0.00225442 0.000999996 312.787 
310 1 0.011896 0.00105162 0.000999998 302.57 
364 1 0.0129022 0.00293552 0.000999998 306.257 
392 1 0.0139525 0.00123354 0.000999991 321.23 
430 1 0.0169059 0.00174167 0.000999993 326.036 
723 1 0.0189961 0.00172788 0.000999992 318.188 
279 1 0.0209923 0.00135248 0.000999998 300 
1099 1 0.0248586 0.00295496 0.000999993 330.149 
1044 1 0.0241312 0.00141222 0.00204443 359.046 
1226 1 0.0268526 0.0027672 0.000999989 342.658 
474 1 0.0285332 0.00167963 0.000999992 322.892 
1175 1 0.0304799 0.00146998 0.0014079 326.413 
280 1 0.033244 0.00181831 0.000999998 304.982 
476 1 0.0350733 0.0024588 0.0014934 322.078 
735 1 0.0363974 0.00104339 0.000999985 332.409 
311 1 0.0384834 0.00158561 0.000999987 333.869 
562 1 0.0405308 0.00178272 0.000999989 330.681 
197 1 0.0425283 0.0018813 0.000999995 319.326 
615 1 0.0443907 0.00261031 0.000999986 331.499 
568 1 0.0458138 0.00132471 0.00156747 350.484 
1197 1 0.0497082 0.00263088 0.000999994 329.313 
366 1 0.00100063 0.00383724 0.000999997 304.473 
920 1 0.0043839 0.00326097 0.00099999 324.31 
1036 1 0.00644525 0.00457953 0.000999989 325.654 
314 1 0.00844721 0.00420419 0.000999998 300 
1224 1 0.0104826 0.00408961 0.000999992 327.128 
1124 1 0.0123036 0.0049164 0.000999992 334.339 
1286 1 0.0152051 0.00422662 0.000999983 336.994 
972 1 0.0186014 0.00369399 0.000999996 316.008 
493 1 0.0202753 0.0030119 0.00185588 355.843 
939 1 0.02075 0.00475605 0.000999988 342.039 
923 1 0.0220823 0.00307749 0.000999993 328.452 
241 1 0.0235323 0.00445514 0.00099999 340.121 
322 1 0.0254857 0.00479463 0.00147149 344.192 
485 1 0.0274261 0.00468323 0.000999995 331.614 
814 1 0.0294225 0.00456453 0.000999989 336.103 
1229 1 0.031651 0.00303909 0.000999991 325.821 
879 1 0.0329315 0.00472611 0.000999998 300 
1019 1 0.0354244 0.00436559 0.000999992 331.871 
26 1 0.0374497 0.00408385 0.000999998 300 
946 1 0.0393304 0.00340354 0.000999998 307.866 
1314 1 0.041438 0.0035651 0.000999997 322.886 
300 1 0.0429164 0.00497018 0.000999991 332.357 
757 1 0.0450352 0.00455742 0.000999996 324.314 
121 1 0.0464429 0.00313648 0.000999998 300 
2899 1 0.0491937 0.0045982 0.000999981 340.673 
235 1 0.0481355 0.00327053 0.00205706 361.532 
852 1 0.00147344 0.00578054 0.000999994 304.965 
143 1 0.00359123 0.00509717 0.000999997 320.622 
712 1 0.00611097 0.00655139 0.000999995 324.723 
857 1 0.00765647 0.00583318 0.0020467 342.549 
156 1 0.0101028 0.00606722 0.000999991 331.82 
733 1 0.0125017 0.00690655 0.000999988 339.888 
761 1 0.0142906 0.00601065 0.000999998 300 
1306 1 0.0170989 0.00501409 0.000999991 327.641 
1285 1 0.0165014 0.00696661 0.000999998 304.532 
237 1 0.0189814 0.0056897 0.000999997 322.198 
621 1 0.0222928 0.00602882 0.00099999 333.97 
1134 1 0.0242725 0.00631312 0.000999989 335.873 
1154 1 0.028986 0.0067722 0.000999991 337.798 
332 1 0.0310772 0.00569306 0.000999998 300 
404 1 0.0326452 0.00696578 0.000999994 326.959 
1299 1 0.0344553 0.0061151 0.000999994 325.43 
1088 1 0.0366774 0.00592881 0.000999988 354.992 
54 1 0.0390828 0.00538836 0.000999994 327.95 
176 1 0.0410339 0.00582837 0.000999992 327.192 
544 1 0.0455174 0.00651313 0.000999998 300 
469 1 0.0472716 0.00515104 0.000999995 319.945 
14 1 0.048698 0.00655308 0.000999996 331.384 
741 1 0.000999996 0.00772368 0.00100003 309.682 
187 1 0.00278473 0.00862649 0.000999991 319.333 
540 1 0.00401709 0.00705129 0.000999987 321.475 
193 1 0.00477613 0.00895932 0.000999998 300 
253 1 0.0068207 0.00842122 0.000999996 322.753 
959 1 0.00850773 0.00730957 0.000999992 329.485 
328 1 0.0114072 0.00885203 0.000999998 300 
718 1 0.0132987 0.00844915 0.0019926 341.105 
978 1 0.0151909 0.00848408 0.000999991 332.386 
488 1 0.0171399 0.00893312 0.000999991 325.605 
847 1 0.0186891 0.00766823 0.000999992 326.548 
473 1 0.0206944 0.00740137 0.000999998 300 
854 1 0.0226507 0.00799697 0.000999991 340.307 
207 1 0.0263751 0.00739621 0.000999998 300.198 
513 1 0.0293352 0.00896057 0.00151575 323.824 
651 1 0.0307733 0.00766986 0.000999989 327.996 
1298 1 0.0326488 0.00875108 0.00190147 323.712 
1244 1 0.0353883 0.00770327 0.00177925 356.065 
611 1 0.0372176 0.00791835 0.000999986 334.184 
730 1 0.0393586 0.00754832 0.000999997 323.516 
835 1 0.0417267 0.00744182 0.00195747 367.308 
110 1 0.0436805 0.00766014 0.000999996 325.603 
428 1 0.0469194 0.00795518 0.000999997 306.334 
174 1 0.0497579 0.00825521 0.000999987 341.41 
205 1 0.00100021 0.00991911 0.000999985 310.624 
177 1 0.00272024 0.0104073 0.001908 320.137 
674 1 0.00638342 0.0103728 0.000999989 323.427 
79 1 0.00942032 0.00908922 0.000999998 330.268 
1320 1 0.0104938 0.0103921 0.00207241 342.436 
779 1 0.012119 0.0108494 0.00100017 326.662 
292 1 0.0139551 0.0100566 0.000999991 327.302 
11 1 0.015904 0.0105056 0.00099999 323.011 
50 1 0.0188973 0.00950435 0.00176508 317.125 
1042 1 0.0207436 0.00942882 0.000999998 304.469 
694 1 0.0226224 0.0101149 0.000999989 328.598 
147 1 0.0240051 0.00907428 0.00200252 355.43 
983 1 0.0256274 0.00967679 0.000999989 325.756 
798 1 0.0278229 0.0101635 0.000999996 310.182 
966 1 0.0311269 0.00968438 0.000999995 313.342 
1186 1 0.033815 0.0102344 0.000999995 318.984 
1091 1 0.035782 0.00950263 0.000999993 331.704 
93 1 0.0382867 0.00960858 0.000999998 327.064 
1160 1 0.0399631 0.0106994 0.000999988 315.209 
575 1 0.0411762 0.00910919 0.00099999 329.168 
985 1 0.04312 0.00957997 0.000999996 315.447 
359 1 0.0453271 0.00941899 0.000999995 322.158 
969 1 0.0472618 0.00992566 0.000999998 310.613 
78 1 0.0492059 0.0103951 0.000999992 312.518 
363 1 0.000999994 0.0125472 0.000999995 303.053 
811 1 0.00296408 0.0122886 0.00127469 310.11 
743 1 0.00449491 0.0110312 0.000999993 311.342 
1251 1 0.00600936 0.0123375 0.000999995 309.628 
72 1 0.009055 0.0112752 0.000999994 318.32 
1313 1 0.0110293 0.0125265 0.00099999 314.973 
654 1 0.0139151 0.0120596 0.000999989 320.089 
271 1 0.0178306 0.0110469 0.000999998 300 
15 1 0.0191506 0.0123316 0.00178965 314.173 
215 1 0.0208644 0.0116686 0.00099999 315.183 
420 1 0.0226323 0.0118976 0.00190669 319.135 
449 1 0.0244554 0.012149 0.000999998 306.316 
39 1 0.0263672 0.0115349 0.000999992 312.225 
188 1 0.0295985 0.0111181 0.000999991 318.294 
425 1 0.028129 0.0124814 0.000999992 306.009 
1095 1 0.0312193 0.01229 0.000999998 300.002 
1227 1 0.033219 0.0122468 0.000999995 310.703 
119 1 0.0353448 0.0122911 0.000999998 300 
650 1 0.0369685 0.0111127 0.000999989 321.358 
1138 1 0.0386186 0.0122428 0.000999992 315.521 
979 1 0.0405124 0.0124274 0.00184388 324.548 
316 1 0.0424182 0.0117034 0.000999998 306.075 
1297 1 0.0443447 0.0111611 0.00099999 319.981 
1206 1 0.046545 0.0118446 0.000999993 316.842 
380 1 0.0484365 0.0121497 0.00157368 309.259 
347 1 0.00209295 0.014 0.00183359 303.081 
309 1 0.00396196 0.014 0.000999998 304.202 
1130 1 0.00566062 0.014 0.00205571 310.516 
807 1 0.00735927 0.014 0.000999991 306.43 
114 1 0.00931258 0.0135525 0.000999993 307.329 
240 1 0.0123816 0.014 0.000999997 305.934 
672 1 0.0144052 0.014 0.000999998 303.184 
729 1 0.0161846 0.014 0.00191321 311.586 
758 1 0.0179409 0.0137147 0.000999996 306.713 
1038 1 0.0199206 0.014 0.000999993 305.55 
81 1 0.0217812 0.0139926 0.00173331 310.027 
676 1 0.0236419 0.0139761 0.000999994 305.206 
534 1 0.0264781 0.0137757 0.000999998 300 
526 1 0.0299137 0.014 0.000999997 301.805 
101 1 0.0322566 0.014 0.000999994 305.749 
1304 1 0.0342566 0.014 0.00099999 307.899 
1171 1 0.0370703 0.0139087 0.000999998 300 
442 1 0.0396097 0.014 0.000999989 312.215 
348 1 0.0423197 0.0137124 0.000999998 300 
626 1 0.0443208 0.014 0.000999994 305.513 
935 1 0.0466526 0.0139472 0.000999998 300 
766 1 0.0489339 0.014 0.000999995 305.829 
728 1 0.00392052 -0.014 0.00238429 300.017 
1249 1 0.00256444 -0.0132265 0.00363435 300.077 
929 1 0.00450257 -0.0131416 0.00412055 300.133 
1137 1 0.00634469 -0.014 0.00274303 300.017 
1097 1 0.0078871 -0.0133954 0.0038635 300.085 
598 1 0.0095839 -0.014 0.0029944 300.037 
1056 1 0.0115791 -0.014 0.0031329 300.049 
747 1 0.0135702 -0.014 0.00294461 300.011 
1337 1 0.0162623 -0.0135725 0.00273454 300.008 
789 1 0.0184969 -0.014 0.00263796 300.085 
894 1 0.0203583 -0.014 0.00336963 300.035 
507 1 0.0220847 -0.0132262 0.00272104 300.021 
170 1 0.0250702 -0.014 0.00238244 300.01 
993 1 0.0240141 -0.0139722 0.00408059 300.058 
1048 1 0.0275175 -0.0134232 0.00263438 300.029 
1267 1 0.0262053 -0.014 0.00402915 300.004 
43 1 0.0295 -0.014 0.00274091 300.029 
1169 1 0.0312288 -0.014 0.00374657 300.08 
1008 1 0.0331407 -0.0134146 0.0037886 300.03 
1168 1 0.0342309 -0.014 0.00221734 300.032 
288 1 0.0350354 -0.014 0.00404837 300.029 
158 1 0.0375146 -0.014 0.00317125 300.012 
47 1 0.0406544 -0.0133617 0.00269294 300.03 
274 1 0.0425983 -0.014 0.00386091 300.004 
652 1 0.0441287 -0.014 0.00257328 300.004 
689 1 0.0463276 -0.014 0.00275222 300.006 
1184 1 0.0483371 -0.014 0.00274697 300.005 
1026 1 0.000999991 -0.0126891 0.00251021 300.033 
261 1 0.000999995 -0.011326 0.00397369 300.163 
1343 1 0.00301409 -0.0113076 0.00397475 300.334 
87 1 0.00423913 -0.0120312 0.0022356 300.03 
355 1 0.00504244 -0.0112267 0.00391614 300.56 
1208 1 0.00656471 -0.0120234 0.00253146 300.03 
22 1 0.00843274 -0.011079 0.00371936 300.635 
378 1 0.0101037 -0.0120919 0.00329275 300.151 
1220 1 0.0128444 -0.012285 0.00367402 300.138 
4 1 0.0145348 -0.0124065 0.00221646 300.047 
336 1 0.015519 -0.0118383 0.00386221 300.049 
622 1 0.0176585 -0.0122282 0.00224094 300.026 
1077 1 0.0174136 -0.0112732 0.00416425 300.167 
736 1 0.0189909 -0.012447 0.00379728 300.433 
681 1 0.0203697 -0.0122626 0.00236006 300.013 
859 1 0.022665 -0.0115618 0.00410205 300.196 
806 1 0.0239103 -0.0124121 0.00278814 300.084 
1152 1 0.0260548 -0.0120702 0.00246214 300.08 
999 1 0.0279366 -0.0119296 0.00389669 300.095 
1316 1 0.0289735 -0.011821 0.0021899 300.192 
797 1 0.029953 -0.0124734 0.00395094 300.184 
1264 1 0.0315301 -0.0122716 0.00273395 300.073 
20 1 0.0336445 -0.0118753 0.00261523 300.358 
1336 1 0.0350723 -0.0118548 0.00401562 300.411 
1126 1 0.0354465 -0.0110244 0.00213404 300.62 
233 1 0.0359508 -0.0129117 0.00256269 300.068 
450 1 0.0369507 -0.0113847 0.00340195 300.176 
160 1 0.0392319 -0.0123737 0.00369314 300.135 
724 1 0.0409925 -0.0114286 0.00230715 300.149 
876 1 0.0419024 -0.0120667 0.00396995 300.063 
872 1 0.0425493 -0.0128203 0.00223337 300.014 
704 1 0.0449215 -0.0120423 0.00276611 300.021 
945 1 0.0469145 -0.0120959 0.00292509 300.037 
221 1 0.0489219 -0.0120878 0.00278378 300.038 
1245 1 0.000999993 -0.00928449 0.00395345 300.838 
744 1 0.00199872 -0.0103191 0.00256345 300.303 
635 1 0.00390569 -0.00984746 0.00293895 300.768 
136 1 0.00590224 -0.00974057 0.00289044 301.665 
418 1 0.00782929 -0.00974667 0.00235529 301.511 
1057 1 0.0112144 -0.00913699 0.00230648 300.782 
259 1 0.0102857 -0.010154 0.00396539 301.039 
1318 1 0.0125372 -0.0106075 0.00262928 301.017 
725 1 0.0121185 -0.00937428 0.00414712 303.969 
1205 1 0.0144017 -0.00990101 0.00247217 301.083 
422 1 0.0163222 -0.0103914 0.00273907 300.272 
924 1 0.0183927 -0.0103733 0.00267041 300.636 
395 1 0.0200087 -0.0107212 0.00379621 300.375 
1195 1 0.0205045 -0.00947314 0.00231414 300.278 
500 1 0.0225748 -0.0102262 0.0026161 300.44 
213 1 0.0246572 -0.0105577 0.00272838 300.224 
909 1 0.0263344 -0.0095128 0.00242 301.08 
740 1 0.0265318 -0.0105259 0.00413308 300.483 
521 1 0.0284821 -0.00929895 0.00254496 302.404 
997 1 0.0297075 -0.0105331 0.00353251 301.015 
445 1 0.0304806 -0.00911342 0.00235493 301.715 
1261 1 0.0322714 -0.0104207 0.00289093 300.402 
529 1 0.0340991 -0.00964259 0.00265859 302.785 
277 1 0.0355513 -0.00991304 0.00402491 302.512 
124 1 0.0367214 -0.00947922 0.002462 301.4 
960 1 0.0385169 -0.0102744 0.00284128 300.341 
510 1 0.0401572 -0.0106169 0.00393302 300.801 
533 1 0.0434256 -0.0107171 0.00268929 300.203 
552 1 0.044975 -0.00945352 0.0026339 300.913 
697 1 0.0458235 -0.0106606 0.00398403 300.354 
440 1 0.0475928 -0.00981798 0.00358448 300.543 
1021 1 0.0490805 -0.0100354 0.00226562 300.513 
95 1 0.0495155 -0.0105984 0.00413479 300.633 
564 1 0.00099999 -0.00828587 0.00219099 300.884 
1178 1 0.00294431 -0.00812116 0.0026297 300.493 
1005 1 0.00493772 -0.00799531 0.00273643 305.626 
284 1 0.00642498 -0.00807971 0.00407095 307.755 
27 1 0.00807073 -0.00718883 0.00266529 312.811 
344 1 0.00938651 -0.00866083 0.00298457 304.143 
455 1 0.0105623 -0.00708018 0.00263943 309.636 
636 1 0.0124312 -0.00770239 0.00298568 303.26 
1006 1 0.0139625 -0.00858986 0.00391714 304.425 
457 1 0.0154895 -0.00790228 0.00238508 300.208 
719 1 0.0174886 -0.00898444 0.00379015 302.75 
970 1 0.0173748 -0.00710733 0.00303941 302.904 
179 1 0.019032 -0.00819104 0.00275844 303.074 
138 1 0.0218439 -0.00861733 0.00355266 301.938 
818 1 0.0203462 -0.00738063 0.00402971 308.822 
246 1 0.0236322 -0.00852863 0.00260825 300.894 
52 1 0.0251761 -0.00874884 0.00386041 303.875 
788 1 0.0270982 -0.00816529 0.00368523 302.614 
988 1 0.028116 -0.00722336 0.00224411 307.135 
490 1 0.0294674 -0.00792801 0.00361716 308.236 
84 1 0.031579 -0.00882185 0.0040007 305.109 
574 1 0.0326897 -0.00787248 0.00263506 302.721 
1270 1 0.0346324 -0.00763772 0.00222151 301.701 
890 1 0.0361877 -0.00783246 0.00346367 304.598 
51 1 0.0380266 -0.00798128 0.00269142 303.361 
631 1 0.0399048 -0.00892272 0.00234495 300.367 
96 1 0.0393912 -0.00787195 0.00414942 305.489 
511 1 0.0410111 -0.00732224 0.00280826 300.994 
466 1 0.041122 -0.00887299 0.00410041 303.52 
1303 1 0.0421003 -0.00893786 0.00235721 301.182 
958 1 0.0436162 -0.00824038 0.00345969 303.114 
801 1 0.0466159 -0.00823817 0.00279014 301.562 
12 1 0.0485517 -0.00783185 0.00249456 301.859 
1322 1 0.00166231 -0.00652449 0.00286836 303.755 
1341 1 0.00396419 -0.00627271 0.00244508 303.608 
558 1 0.00510905 -0.00651309 0.00406821 318.58 
1255 1 0.00617585 -0.0056989 0.0025853 309.194 
56 1 0.00920399 -0.00554256 0.00273928 324.146 
1328 1 0.0124008 -0.00589791 0.00386145 328.351 
981 1 0.0141383 -0.00669754 0.00326137 304.457 
63 1 0.016488 -0.00538171 0.00255375 309.924 
942 1 0.0197866 -0.00626282 0.00246853 311.987 
1115 1 0.0187325 -0.00616465 0.0041654 330.615 
394 1 0.0204476 -0.00512481 0.00397452 319.194 
433 1 0.0221624 -0.00664013 0.00363846 315.086 
1004 1 0.0238057 -0.00623755 0.0025719 307.158 
957 1 0.0256907 -0.00562412 0.0028533 305.762 
436 1 0.0276169 -0.00518118 0.0025475 321.767 
769 1 0.0283152 -0.00634638 0.0040305 324.706 
141 1 0.0300155 -0.00540323 0.00326521 318.392 
59 1 0.0319484 -0.00601689 0.00271977 308.865 
104 1 0.0339034 -0.00541545 0.00219479 308.719 
489 1 0.0353605 -0.00612222 0.00408883 314.516 
1166 1 0.0366481 -0.00613693 0.00250276 303.28 
58 1 0.0378524 -0.00653306 0.00405974 309.206 
593 1 0.0392466 -0.00639765 0.00263055 304.515 
897 1 0.041185 -0.00533196 0.00253628 312.372 
1 1 0.0428685 -0.00661072 0.0025736 301.584 
759 1 0.0446992 -0.00576291 0.00298167 304.751 
396 1 0.0462771 -0.0066257 0.00392378 305.564 
1234 1 0.0482705 -0.00512445 0.00266 308.191 
3839 1 0.0498275 -0.00635211 0.00292208 307.485 
539 1 0.000999991 -0.00463755 0.00284091 304.678 
502 1 0.0028692 -0.00496099 0.00348449 304.891 
1090 1 0.00241806 -0.00326162 0.00253127 307.063 
666 1 0.00465322 -0.00440221 0.00271947 307.376 
102 1 0.00755571 -0.00396157 0.00273142 322.566 
263 1 0.00952789 -0.00357948 0.00294262 352.71 
659 1 0.0111076 -0.00492458 0.00267413 312.531 
61 1 0.0132155 -0.00474062 0.00244835 317.804 
701 1 0.014857 -0.00485586 0.003585 327.592 
968 1 0.0144952 -0.00320426 0.00249262 327.693 
949 1 0.0164875 -0.00336364 0.00242094 321.57 
815 1 0.0184075 -0.00482756 0.00266398 315.554 
941 1 0.0219151 -0.00493099 0.00262965 311.214 
793 1 0.0203805 -0.00364863 0.00260586 325.292 
371 1 0.0217992 -0.00348212 0.00400576 349.831 
437 1 0.0237219 -0.00436751 0.00327611 308.77 
232 1 0.0256883 -0.00374046 0.00360621 322.302 
1053 1 0.0274331 -0.0032043 0.00278871 310.419 
1113 1 0.0294168 -0.00367225 0.0024619 329.753 
239 1 0.0285386 -0.00436099 0.00412155 362.424 
125 1 0.0313661 -0.00411936 0.00247416 318.863 
503 1 0.0305202 -0.00320882 0.00406428 365.881 
685 1 0.0338027 -0.00315327 0.00216831 314.389 
1183 1 0.0329001 -0.00455259 0.00369441 316.737 
607 1 0.0355435 -0.00451931 0.00290681 322.884 
670 1 0.0344352 -0.0033252 0.00406679 371.232 
337 1 0.0372277 -0.00348272 0.00320522 329.627 
1129 1 0.0385362 -0.00458563 0.00217014 310.052 
731 1 0.0397943 -0.0039422 0.00358553 327.36 
571 1 0.0429846 -0.00447594 0.00270542 307.712 
971 1 0.0428698 -0.00304037 0.00409671 363.365 
708 1 0.0447234 -0.00389631 0.00371446 311.909 
886 1 0.0466457 -0.00466918 0.00373368 307.118 
1181 1 0.0478672 -0.0031672 0.00257964 326.552 
7 1 0.000999995 -0.00224926 0.00351349 315.833 
194 1 0.00444504 -0.00241389 0.00266259 323.101 
824 1 0.00663811 -0.002199 0.00250483 324.731 
850 1 0.00789364 -0.0024833 0.00403545 337.588 
520 1 0.00878403 -0.00181657 0.00236061 344.355 
1122 1 0.011365 -0.00295271 0.00246086 340.133 
1071 1 0.0110248 -0.00157098 0.0038662 400.405 
1326 1 0.0128951 -0.00189142 0.00319063 336.911 
592 1 0.0149515 -0.00128289 0.00280888 347.749 
251 1 0.0169801 -0.001426 0.00247444 326.016 
702 1 0.0161354 -0.00228746 0.00406953 317.508 
1149 1 0.0180125 -0.00280077 0.00358607 358.943 
379 1 0.0189674 -0.00158635 0.00231587 327.745 
1284 1 0.0210353 -0.00176092 0.00269408 345.758 
794 1 0.0227832 -0.00284188 0.00238658 323.681 
448 1 0.0225297 -0.0013417 0.0039554 379.422 
1114 1 0.0242126 -0.00239472 0.00371208 360.101 
1335 1 0.0270199 -0.00120829 0.00282432 371.243 
687 1 0.0291767 -0.00168212 0.00229324 342.96 
753 1 0.0287052 -0.00236798 0.00411184 400.131 
628 1 0.0312942 -0.00143576 0.00223057 315.628 
937 1 0.0323336 -0.00265285 0.00342984 351.837 
637 1 0.0355118 -0.00215918 0.00284971 338.813 
998 1 0.0373732 -0.001489 0.00314284 329.026 
128 1 0.0393168 -0.00208354 0.00264561 323.184 
871 1 0.0411969 -0.00260098 0.00308983 308.013 
992 1 0.0426257 -0.00120919 0.00294356 323.448 
587 1 0.0438385 -0.00269671 0.00238109 325.231 
710 1 0.0445866 -0.00189194 0.0040522 367.312 
512 1 0.0461727 -0.00207084 0.00270327 306.643 
21 1 0.0478069 -0.00170423 0.00394202 395.996 
1170 1 0.0495766 -0.00258666 0.00344025 330.992 
822 1 0.000999987 -0.000473589 0.00259319 312.31 
109 1 0.0024542 -0.000832872 0.00391839 344.117 
528 1 0.00578114 -0.000842966 0.00394346 415.681 
242 1 0.00411277 -0.000225061 0.00285187 324.197 
144 1 0.00763281 -0.000245222 0.00300108 350.817 
1192 1 0.00914761 -0.000927255 0.00411472 399.659 
419 1 0.00945075 0.000512878 0.0026542 358.539 
412 1 0.0112445 -0.000305026 0.0023172 314.02 
1076 1 0.0126516 8.42536e-06 0.00379379 378.742 
62 1 0.0149188 0.000712616 0.0026792 365.917 
296 1 0.0169126 0.000567618 0.00261911 363.313 
1125 1 0.0179476 -0.000535511 0.00398153 360.893 
229 1 0.0189022 0.000404401 0.0024965 352.191 
1121 1 0.0207436 0.000143193 0.00323189 365.903 
1269 1 0.0233602 0.000450973 0.00361969 402.15 
182 1 0.0248598 -0.000777839 0.00272881 314.487 
438 1 0.0259157 0.000919027 0.00280466 387.345 
1194 1 0.0286065 0.000232978 0.00237905 352.251 
896 1 0.0318096 -0.000830484 0.00406577 399.824 
1030 1 0.0305119 0.000242498 0.00298658 356.289 
334 1 0.033172 -0.000725086 0.00260031 305.698 
19 1 0.0356439 -0.00022773 0.00234772 355.01 
65 1 0.0377027 0.000305464 0.00232351 343.358 
1120 1 0.0390534 -0.000489579 0.00382456 373.578 
1079 1 0.0395763 0.00096548 0.00255594 345.301 
1268 1 0.0407291 -0.00066785 0.0026123 336.934 
267 1 0.0425149 0.000767667 0.00266122 340.865 
307 1 0.0436758 2.84903e-05 0.00411238 421.123 
640 1 0.0445885 -0.000664407 0.00247324 349.371 
1235 1 0.0459945 0.00043435 0.00337651 347.533 
559 1 0.0474154 -0.000541394 0.0023621 314.253 
70 1 0.0493083 -0.000516063 0.00336394 352.7 
777 1 0.000999995 0.00110825 0.00381703 316.444 
471 1 0.000999996 0.00219067 0.00213525 313.631 
1043 1 0.00259936 0.0010612 0.00261711 328.191 
1165 1 0.0043985 0.00192522 0.00248846 353.72 
1342 1 0.00615918 0.00122393 0.00312734 358.382 
948 1 0.00824989 0.00209418 0.00238418 336.3 
73 1 0.00954494 0.00198347 0.0040064 397.238 
505 1 0.0109079 0.00187772 0.00253671 322.609 
921 1 0.0128894 0.00162969 0.00264707 323.681 
698 1 0.0148031 0.00263621 0.00214408 359.895 
542 1 0.0161275 0.00214771 0.00356089 368.598 
202 1 0.0179548 0.00149021 0.00405531 432.938 
1312 1 0.0198177 0.00190183 0.00345535 403.862 
1100 1 0.0218928 0.00199069 0.0026682 376.285 
902 1 0.024654 0.0020511 0.00386609 422.125 
715 1 0.0275718 0.00203697 0.00271739 387.987 
209 1 0.0292263 0.00157551 0.00374179 403.804 
68 1 0.030945 0.00242399 0.00317064 359.539 
189 1 0.0323332 0.0010903 0.00262827 326.579 
122 1 0.0331342 0.00221269 0.00408336 361.805 
1112 1 0.0343195 0.0011875 0.00284081 334.068 
1259 1 0.0371473 0.00244187 0.00221728 374.735 
570 1 0.0366618 0.0011466 0.00380976 410.329 