ITEM: TIMESTEP
22275000
ITEM: NUMBER OF ATOMS
5000
ITEM: BOX BOUNDS mm mm mm
0 0.1
-0.015 0.015
0 0.3
ITEM: ATOMS id type x y z f_Temp[0] 
977 1 0.00102825 -0.014 0.000999993 300.112 
581 1 0.0028054 -0.013082 0.000999998 300 
980 1 0.00536401 -0.0139934 0.000999992 300.183 
1252 1 0.00736682 -0.0139977 0.000999998 300 
648 1 0.00943464 -0.014 0.000999991 300.386 
1049 1 0.0114353 -0.0139954 0.000999998 300 
585 1 0.0133901 -0.0135649 0.000999998 300 
453 1 0.0153493 -0.0139698 0.000999997 300.019 
812 1 0.0173493 -0.0139999 0.000999993 300.331 
1111 1 0.0195007 -0.0134438 0.000999984 300.4 
713 1 0.021422 -0.014 0.000999994 300.099 
1065 1 0.0234048 -0.014 0.00126756 300.05 
82 1 0.0265155 -0.0139931 0.000999994 300.246 
383 1 0.0285156 -0.014 0.000999992 300.217 
930 1 0.030521 -0.014 0.000999997 300.345 
936 1 0.0322405 -0.014 0.00202133 300.464 
1185 1 0.0365621 -0.014 0.000999997 300.117 
961 1 0.0387276 -0.014 0.00158109 300.533 
397 1 0.0415067 -0.014 0.000999998 300.216 
434 1 0.0453634 -0.0139995 0.000999989 300.095 
845 1 0.0473634 -0.013996 0.000999993 300.042 
69 1 0.0493634 -0.014 0.000999998 300 
775 1 0.00100002 -0.0113754 0.000999998 300 
100 1 0.0029795 -0.0110896 0.000999992 300.689 
914 1 0.00557519 -0.0112015 0.00100005 300.795 
80 1 0.00757517 -0.0111953 0.000999991 301.574 
451 1 0.00998402 -0.0120769 0.000999996 301.071 
796 1 0.00840292 -0.0126653 0.00207425 300.385 
693 1 0.0116631 -0.012314 0.00206038 301.836 
1317 1 0.0131863 -0.0115688 0.000999987 301.898 
915 1 0.0160944 -0.0121103 0.000999994 300.457 
410 1 0.0190455 -0.011496 0.000999996 300.458 
830 1 0.0224371 -0.0122702 0.000999998 300.005 
320 1 0.0247898 -0.0125822 0.000999992 300.446 
112 1 0.0274126 -0.0122056 0.000999996 300.622 
75 1 0.0305709 -0.0120006 0.000999993 301.34 
44 1 0.0325472 -0.012308 0.000999993 300.783 
903 1 0.0346614 -0.0124727 0.000999987 301.364 
501 1 0.0399655 -0.0125406 0.000999994 301.205 
606 1 0.0381813 -0.0121244 0.00200969 302.016 
895 1 0.0424953 -0.0112468 0.000999991 301.692 
98 1 0.0440827 -0.0124633 0.000999998 300.412 
591 1 0.0463639 -0.0121886 0.000999998 300 
260 1 0.0483399 -0.0113954 0.000999988 301.593 
341 1 0.00236835 -0.00912792 0.000999989 301.338 
781 1 0.00434315 -0.00962605 0.00099999 302.059 
163 1 0.00630249 -0.00922482 0.000999992 303.27 
180 1 0.00969329 -0.0104144 0.00207298 305.017 
657 1 0.0113778 -0.0106424 0.000999994 300.997 
479 1 0.0130888 -0.00957115 0.00099999 303.374 
1334 1 0.0156328 -0.00933789 0.000999989 304.282 
236 1 0.0173021 -0.0105161 0.00100003 301.946 
463 1 0.0189969 -0.0094543 0.000999987 304.103 
1058 1 0.020961 -0.0109208 0.000999997 300.565 
214 1 0.021988 -0.00920459 0.000999991 304.356 
48 1 0.0236592 -0.010687 0.000999996 301.062 
1001 1 0.0256579 -0.0107646 0.000999989 301.287 
157 1 0.0275721 -0.0101849 0.00099999 304.653 
154 1 0.0295703 -0.010269 0.000999998 305.005 
849 1 0.0316898 -0.0101273 0.000999998 300.43 
986 1 0.0337356 -0.0106994 0.000999992 303.506 
352 1 0.0353603 -0.00937906 0.000999998 304.495 
391 1 0.037078 -0.0107965 0.00099999 303.397 
828 1 0.0380495 -0.00904828 0.000999991 308.496 
1302 1 0.0391669 -0.010707 0.000999988 302.836 
1153 1 0.0410033 -0.00991491 0.000999992 304.229 
1029 1 0.0435086 -0.00935559 0.000999995 303.818 
734 1 0.0450013 -0.0106867 0.000999997 300.943 
168 1 0.0467898 -0.0104128 0.001852 302.079 
673 1 0.0479253 -0.00900397 0.000999991 304.085 
230 1 0.00208414 -0.00710001 0.000999993 304.684 
962 1 0.00400567 -0.00765473 0.000999989 306.38 
829 1 0.00807393 -0.0082964 0.000999989 308.359 
409 1 0.0100683 -0.00814704 0.00100015 304.669 
524 1 0.0120481 -0.00786324 0.000999994 304.744 
1221 1 0.0140493 -0.00781582 0.000999998 300.209 
1092 1 0.0173393 -0.0086903 0.00181755 311.362 
461 1 0.016624 -0.00701102 0.000999992 305.253 
1062 1 0.0197951 -0.00762048 0.000999986 313.013 
790 1 0.0215614 -0.00748521 0.00192831 323.528 
200 1 0.0233297 -0.00737885 0.000999993 312.886 
602 1 0.0247258 -0.00899514 0.000999997 301.736 
546 1 0.0254076 -0.0074302 0.00204216 304.749 
1240 1 0.0269157 -0.00822994 0.000999998 300.974 
247 1 0.0292594 -0.00829331 0.00099999 311.277 
973 1 0.0315646 -0.00811889 0.00099999 307.138 
1319 1 0.0334732 -0.00871669 0.000999992 306.181 
947 1 0.0365133 -0.00779137 0.00138712 303.156 
238 1 0.0398083 -0.00744564 0.000999998 305.862 
162 1 0.0418495 -0.0074874 0.000999997 301.59 
367 1 0.0444121 -0.00769988 0.0016651 304.302 
1274 1 0.0459344 -0.00881346 0.000999986 305.473 
1074 1 0.0498522 -0.00837849 0.000999998 300 
28 1 0.0010002 -0.00541922 0.000999994 303.501 
956 1 0.00299515 -0.00525887 0.000999998 300 
134 1 0.00500411 -0.00536152 0.000999994 309.998 
825 1 0.00684751 -0.00671657 0.000999995 309.255 
976 1 0.00894151 -0.00649438 0.000999994 315.726 
169 1 0.0109715 -0.00601028 0.000999993 312.187 
556 1 0.0129962 -0.00610228 0.000999995 313.598 
421 1 0.0149261 -0.00609382 0.001525 311.159 
1217 1 0.0184323 -0.00615665 0.000999998 308.545 
1325 1 0.0210612 -0.00573826 0.000999998 300 
496 1 0.0230199 -0.00528279 0.000999996 317.238 
639 1 0.024956 -0.005784 0.00099999 317.019 
1151 1 0.0269057 -0.0062297 0.000999984 318.703 
443 1 0.0289774 -0.0054376 0.000999998 300 
1231 1 0.0310305 -0.00545213 0.000999998 300 
146 1 0.0303193 -0.00698151 0.00207498 321.997 
1290 1 0.0330366 -0.00676492 0.000999997 307.185 
1075 1 0.0353259 -0.00621403 0.000999995 306.434 
618 1 0.038025 -0.00654034 0.000999998 301.285 
83 1 0.0399098 -0.00544822 0.000999985 320.092 
974 1 0.0424605 -0.00544572 0.000999991 316.136 
1289 1 0.0449382 -0.00588859 0.000999992 311.503 
772 1 0.0466402 -0.00609637 0.0020296 319.259 
530 1 0.0482999 -0.00652692 0.000999994 306.836 
283 1 0.00371046 -0.0033874 0.000999998 300 
750 1 0.00569452 -0.00311851 0.000999998 300 
234 1 0.00689912 -0.00471724 0.000999994 316.917 
1025 1 0.008087 -0.00310813 0.000999998 300 
139 1 0.00957568 -0.00451691 0.000999998 300 
791 1 0.0119528 -0.0041857 0.000999985 327.829 
402 1 0.0153626 -0.004214 0.000999994 316.426 
1087 1 0.017357 -0.00447035 0.000999991 318.427 
519 1 0.0193899 -0.00431182 0.000999993 320.79 
275 1 0.0216938 -0.00378558 0.000999994 314.688 
142 1 0.0249492 -0.00393316 0.00175782 324.409 
90 1 0.0267754 -0.00423396 0.000999996 315.243 
492 1 0.032699 -0.00434362 0.000999993 316.735 
749 1 0.0350091 -0.00423928 0.000999994 317.601 
1187 1 0.0369358 -0.00484893 0.000999997 307.4 
175 1 0.0402006 -0.00358298 0.00166048 335.098 
1050 1 0.0420853 -0.00347573 0.000999995 312.936 
846 1 0.0439728 -0.00413701 0.000999988 318.846 
424 1 0.0456873 -0.00431841 0.00201368 319.578 
1243 1 0.0474114 -0.00430605 0.000999998 316.316 
3721 1 0.0493439 -0.00482097 0.000999988 312.459 
77 1 0.00106552 -0.00208267 0.000999998 300 
37 1 0.00269634 -0.00135299 0.00200246 328.027 
1108 1 0.00442621 -0.00130241 0.000999983 326.839 
385 1 0.0074663 -0.0011745 0.000999988 332.824 
89 1 0.0100507 -0.00255575 0.000999998 300 
318 1 0.0118586 -0.00167902 0.000999998 315.628 
32 1 0.0138228 -0.00205531 0.000999998 311.482 
964 1 0.0158217 -0.00212183 0.000999998 309.869 
1180 1 0.0177825 -0.00251614 0.000999993 317.995 
885 1 0.0201852 -0.00247261 0.000999997 320.781 
264 1 0.0220832 -0.00158202 0.000999986 332.753 
258 1 0.0241116 -0.00228266 0.001 331.613 
291 1 0.0258098 -0.00110755 0.000999998 313.523 
1052 1 0.0282802 -0.00291658 0.000999992 332.035 
486 1 0.0304223 -0.00274938 0.000999993 323.991 
401 1 0.0328101 -0.00186878 0.000999996 315.049 
91 1 0.0348112 -0.00186302 0.00099999 323.538 
1248 1 0.0364864 -0.00291987 0.00127711 314.486 
1196 1 0.0384654 -0.00283657 0.000999995 316.171 
351 1 0.0409167 -0.00183629 0.000999995 324.137 
1003 1 0.0429074 -0.00158963 0.000999997 316.15 
545 1 0.0452833 -0.00262575 0.000999997 321.41 
31 1 0.0472197 -0.00212533 0.000999991 318.743 
1027 1 0.0491105 -0.00283465 0.000999996 306.693 
620 1 0.00150677 0.000624044 0.000999984 318.215 
817 1 0.00370943 0.000569692 0.000999998 300 
127 1 0.00591125 -0.000406584 0.00199601 358.705 
306 1 0.00756563 0.000823028 0.000999994 321.332 
167 1 0.00960301 -0.000600847 0.000999992 337.917 
721 1 0.0132144 -0.000384327 0.00191523 357.661 
33 1 0.0157878 -0.000111113 0.000999998 300 
522 1 0.0178049 -0.000352586 0.000999998 300 
1330 1 0.0201725 -0.00047203 0.000999998 300 
624 1 0.0239822 -0.000286865 0.000999988 336.512 
799 1 0.0222849 0.000162791 0.00195755 365.783 
644 1 0.0278053 -0.000973797 0.000999988 342.091 
181 1 0.0267602 0.000746008 0.000999994 346.831 
289 1 0.0300684 -0.000444246 0.000999989 331.449 
899 1 0.0320249 -2.93762e-05 0.000999997 316.33 
184 1 0.0341146 1.68624e-05 0.000999998 303.084 
1191 1 0.0369447 -0.000988282 0.000999998 309.766 
625 1 0.0395941 -0.000290999 0.000999998 317.427 
250 1 0.0417007 7.81931e-06 0.000999996 330.588 
1247 1 0.0440458 0.000574488 0.000999991 330.927 
518 1 0.045939 -0.000588995 0.000999992 339.375 
198 1 0.0476838 0.00089867 0.000999998 300 
527 1 0.0488465 -0.000852146 0.000999995 317.105 
904 1 0.0494914 0.00083641 0.00185608 346.241 
305 1 0.00264916 0.00226565 0.00100002 327.918 
408 1 0.00557638 0.00129512 0.000999993 341.727 
1037 1 0.00643218 0.00282586 0.00196146 371.419 
1054 1 0.00968458 0.00225442 0.000999996 322.332 
310 1 0.0118963 0.00105149 0.000999998 306.064 
364 1 0.0129022 0.00293552 0.000999998 311.882 
392 1 0.0139525 0.00123354 0.000999991 334.862 
430 1 0.0169059 0.00174167 0.000999993 339.345 
723 1 0.0189958 0.0017279 0.000999992 330.166 
279 1 0.0209923 0.00135248 0.000999998 300 
1099 1 0.0248586 0.00295496 0.000999993 342.55 
1044 1 0.0241312 0.00141222 0.00204443 379.821 
1226 1 0.0268526 0.0027672 0.000999989 359.475 
474 1 0.0285332 0.00167963 0.000999992 337.733 
1175 1 0.0304799 0.00146998 0.0014079 345.997 
280 1 0.033244 0.0018183 0.000999998 310.921 
476 1 0.0350733 0.0024588 0.0014934 339.826 
735 1 0.0363974 0.00104339 0.000999985 348.215 
311 1 0.0384834 0.00158561 0.000999987 350.623 
562 1 0.0405308 0.00178272 0.000999989 344.977 
197 1 0.0425283 0.0018813 0.000999995 329.733 
615 1 0.0443907 0.00261031 0.000999986 344.324 
568 1 0.0458138 0.00132471 0.00156747 370.902 
1197 1 0.0497082 0.00263088 0.000999994 344.409 
366 1 0.00100063 0.00383724 0.000999997 307.134 
920 1 0.0043839 0.00326097 0.00099999 332.434 
1036 1 0.00644525 0.00457953 0.000999989 334.119 
314 1 0.00844586 0.0042004 0.000999998 300 
1224 1 0.0104826 0.00408961 0.000999992 337.239 
1124 1 0.0123036 0.0049164 0.000999992 344.399 
1286 1 0.0152051 0.00422662 0.000999983 347.848 
972 1 0.0186014 0.00369399 0.000999996 322.939 
493 1 0.0202753 0.0030119 0.00185588 375.288 
939 1 0.02075 0.00475605 0.000999988 353.69 
923 1 0.0220823 0.00307749 0.000999993 339.802 
241 1 0.0235323 0.00445514 0.00099999 352.522 
322 1 0.0254857 0.00479463 0.00147149 357.399 
485 1 0.0274261 0.00468323 0.000999995 342.021 
814 1 0.0294225 0.00456453 0.000999989 348.655 
1229 1 0.031651 0.00303909 0.000999991 341.055 
879 1 0.0329343 0.00472725 0.000999998 300 
1019 1 0.0354244 0.00436559 0.000999992 341.507 
26 1 0.0374497 0.00408388 0.000999998 300 
946 1 0.0393305 0.00340354 0.000999998 315.502 
1314 1 0.041438 0.0035651 0.000999997 334.843 
300 1 0.0429164 0.00497018 0.000999991 342.856 
757 1 0.0450353 0.00455745 0.000999996 332.416 
121 1 0.0464429 0.00313648 0.000999998 300 
2899 1 0.0491937 0.0045982 0.000999981 350.839 
235 1 0.0481355 0.00327053 0.00205706 380.513 
852 1 0.00147344 0.00578054 0.000999994 306.803 
143 1 0.00359123 0.00509717 0.000999997 327.87 
712 1 0.00611097 0.00655139 0.000999995 330.76 
857 1 0.00765647 0.00583318 0.0020467 353.896 
156 1 0.0101026 0.00606706 0.000999991 339.496 
733 1 0.0125017 0.00690655 0.000999988 348.423 
761 1 0.0142907 0.0060108 0.000999998 300 
1306 1 0.0170989 0.00501409 0.000999991 334.522 
1285 1 0.0165012 0.00696602 0.000999998 308.027 
237 1 0.0189814 0.0056897 0.000999997 329.415 
621 1 0.0222928 0.00602882 0.00099999 341.737 
1134 1 0.0242725 0.00631312 0.000999989 344.484 
1154 1 0.028986 0.0067722 0.000999991 347.134 
332 1 0.0310772 0.00569306 0.000999998 300 
404 1 0.0326452 0.00696578 0.000999994 335.602 
1299 1 0.0344553 0.0061151 0.000999994 334.639 
1088 1 0.0366774 0.00592881 0.000999988 363.262 
54 1 0.0390828 0.00538836 0.000999994 335.018 
176 1 0.0410339 0.00582837 0.000999992 336.213 
544 1 0.045514 0.00651517 0.000999998 300 
469 1 0.0472716 0.00515104 0.000999995 329.937 
14 1 0.0486979 0.00655309 0.000999996 338.651 
741 1 0.000999996 0.00772368 0.00100003 310.796 
187 1 0.00278473 0.00862649 0.000999991 321.567 
540 1 0.00401709 0.00705129 0.000999987 326.067 
193 1 0.004778 0.00895668 0.000999998 300 
253 1 0.0068207 0.00842122 0.000999996 326.952 
959 1 0.00850773 0.00730957 0.000999992 335.714 
328 1 0.0114071 0.00884951 0.000999998 300 
718 1 0.0132987 0.00844915 0.0019926 351.341 
978 1 0.0151909 0.00848408 0.000999991 338.351 
488 1 0.0171399 0.00893312 0.000999991 331.119 
847 1 0.0186891 0.00766823 0.000999992 333.637 
473 1 0.0206948 0.00740118 0.000999998 300 
854 1 0.0226507 0.00799697 0.000999991 347.779 
207 1 0.026375 0.00739615 0.000999998 300.085 
513 1 0.0293352 0.00896057 0.00151575 330.73 
651 1 0.0307733 0.00766986 0.000999989 335.394 
1298 1 0.0326488 0.00875108 0.00190147 334.194 
1244 1 0.0353883 0.00770327 0.00177925 368.301 
611 1 0.0372176 0.00791835 0.000999986 342.06 
730 1 0.0393604 0.00754586 0.000999997 330.532 
835 1 0.0417267 0.00744182 0.00195747 380.866 
110 1 0.0436805 0.00766014 0.000999996 332.35 
428 1 0.0469194 0.00795518 0.000999997 311.428 
174 1 0.0497579 0.00825521 0.000999987 349.741 
205 1 0.00100021 0.00991911 0.000999985 311.029 
177 1 0.00272024 0.0104073 0.001908 321.657 
674 1 0.00638342 0.0103728 0.000999989 325.622 
79 1 0.00942032 0.00908922 0.000999998 335.306 
1320 1 0.0104938 0.0103921 0.00207241 348.381 
779 1 0.012119 0.0108494 0.00100017 331.989 
292 1 0.0139551 0.0100566 0.000999991 332.708 
11 1 0.015904 0.0105056 0.00099999 327.165 
50 1 0.0188973 0.00950435 0.00176508 323.989 
1042 1 0.0207436 0.0094288 0.000999998 307.171 
694 1 0.0226224 0.0101149 0.000999989 333.695 
147 1 0.0240051 0.00907428 0.00200252 363.283 
983 1 0.0256274 0.00967679 0.000999989 331.675 
798 1 0.0278229 0.0101635 0.000999996 313.795 
966 1 0.0311269 0.00968438 0.000999995 318.952 
1186 1 0.033815 0.0102344 0.000999995 325.035 
1091 1 0.035782 0.00950263 0.000999993 338.32 
93 1 0.0382867 0.00960858 0.000999998 333.919 
1160 1 0.0399631 0.0106994 0.000999988 320.062 
575 1 0.0411762 0.00910919 0.00099999 336.976 
985 1 0.04312 0.00957997 0.000999996 320.529 
359 1 0.0453271 0.00941899 0.000999995 328.288 
969 1 0.0472618 0.00992566 0.000999998 315.01 
78 1 0.0492059 0.0103951 0.000999992 316.895 
363 1 0.000999994 0.0125472 0.000999995 303.669 
811 1 0.00296408 0.0122886 0.00127469 311.609 
743 1 0.00449491 0.0110312 0.000999993 313.09 
1251 1 0.00600936 0.0123375 0.000999995 310.982 
72 1 0.009055 0.0112752 0.000999994 321.598 
1313 1 0.0110293 0.0125265 0.00099999 317.81 
654 1 0.0139151 0.0120596 0.000999989 323.493 
271 1 0.0178307 0.0110466 0.000999998 300 
15 1 0.0191506 0.0123316 0.00178965 319.1 
215 1 0.0208644 0.0116686 0.00099999 318.921 
420 1 0.0226323 0.0118976 0.00190669 325.325 
449 1 0.0244554 0.012149 0.000999998 309.552 
39 1 0.0263672 0.0115349 0.000999992 315.686 
188 1 0.0295985 0.0111181 0.000999991 323.266 
425 1 0.028129 0.0124814 0.000999992 308.023 
1095 1 0.0312193 0.01229 0.000999998 300.001 
1227 1 0.033219 0.0122468 0.000999995 314.129 
119 1 0.035345 0.0122921 0.000999998 300 
650 1 0.0369685 0.0111127 0.000999989 326.588 
1138 1 0.0386186 0.0122428 0.000999992 319.655 
979 1 0.0405124 0.0124274 0.00184388 330.249 
316 1 0.042418 0.0117033 0.000999998 309.3 
1297 1 0.0443447 0.0111611 0.00099999 325.741 
1206 1 0.046545 0.0118446 0.000999993 321.696 
380 1 0.0484365 0.0121497 0.00157368 313.793 
347 1 0.00209295 0.014 0.00183359 303.805 
309 1 0.00396196 0.014 0.000999998 304.942 
1130 1 0.00566062 0.014 0.00205571 311.654 
807 1 0.00735927 0.014 0.000999991 307.492 
114 1 0.00931258 0.0135525 0.000999993 309.081 
240 1 0.0123816 0.014 0.000999997 307.349 
672 1 0.0144052 0.014 0.000999998 304.454 
729 1 0.0161846 0.014 0.00191321 314.11 
758 1 0.0179409 0.0137147 0.000999996 309.189 
1038 1 0.0199206 0.014 0.000999993 307.733 
81 1 0.0217812 0.0139926 0.00173331 313.329 
676 1 0.0236419 0.0139761 0.000999994 307.199 
534 1 0.0264762 0.0137816 0.000999998 300 
526 1 0.0299137 0.014 0.000999997 303.186 
101 1 0.0322566 0.014 0.000999994 307.792 
1304 1 0.0342566 0.014 0.00099999 309.647 
1171 1 0.0370565 0.0139154 0.000999998 300 
442 1 0.0396097 0.014 0.000999989 315.395 
348 1 0.0423167 0.0137137 0.000999998 300 
626 1 0.0443208 0.014 0.000999994 308.026 
935 1 0.0466459 0.0139512 0.000999998 300 
766 1 0.0489339 0.014 0.000999995 308.746 
728 1 0.00392052 -0.014 0.00238429 300.345 
1249 1 0.00256444 -0.0132265 0.00363435 301.89 
929 1 0.00450257 -0.0131416 0.00412055 302.412 
1137 1 0.00634469 -0.014 0.00274303 301.023 
1097 1 0.0078871 -0.0133954 0.0038635 307.041 
598 1 0.0095839 -0.014 0.0029944 301.905 
1056 1 0.0115791 -0.014 0.0031329 301.567 
747 1 0.0135702 -0.014 0.00294461 300.287 
1337 1 0.0162623 -0.0135725 0.00273454 300.138 
789 1 0.0184969 -0.014 0.00263796 301.87 
894 1 0.0203583 -0.014 0.00336963 301.231 
507 1 0.0220847 -0.0132262 0.00272104 300.62 
170 1 0.0250702 -0.014 0.00238244 300.49 
993 1 0.0240141 -0.0139722 0.00408059 303.669 
1048 1 0.0275175 -0.0134232 0.00263438 301.091 
1267 1 0.0262053 -0.014 0.00402915 300.165 
43 1 0.0295 -0.014 0.00274091 300.519 
1169 1 0.0312288 -0.014 0.00374657 301.829 
1008 1 0.0331407 -0.0134146 0.0037886 300.611 
1168 1 0.0342309 -0.014 0.00221734 300.426 
288 1 0.0350354 -0.014 0.00404837 300.687 
158 1 0.0375146 -0.014 0.00317125 300.176 
47 1 0.0406544 -0.0133617 0.00269294 301.256 
274 1 0.0425983 -0.014 0.00386091 300.333 
652 1 0.0441287 -0.014 0.00257328 300.187 
689 1 0.0463276 -0.014 0.00275222 300.197 
1184 1 0.0483371 -0.014 0.00274697 300.203 
1026 1 0.000999991 -0.0126891 0.00251021 300.683 
261 1 0.000999995 -0.011326 0.00397369 303.804 
1343 1 0.00301409 -0.0113076 0.00397475 308.889 
87 1 0.00423913 -0.0120312 0.0022356 300.312 
355 1 0.00504244 -0.0112267 0.00391614 309.232 
1208 1 0.00656471 -0.0120234 0.00253146 300.383 
22 1 0.00843274 -0.011079 0.00371936 310.203 
378 1 0.0101037 -0.0120919 0.00329275 302.134 
1220 1 0.0128444 -0.012285 0.00367402 301.29 
4 1 0.0145348 -0.0124065 0.00221646 300.472 
336 1 0.015519 -0.0118383 0.00386221 300.575 
622 1 0.0176585 -0.0122282 0.00224094 300.385 
1077 1 0.0174136 -0.0112732 0.00416425 302.346 
736 1 0.0189909 -0.012447 0.00379728 311.358 
681 1 0.0203697 -0.0122626 0.00236006 300.179 
859 1 0.022665 -0.0115618 0.00410205 307.184 
806 1 0.0239103 -0.0124121 0.00278814 302.67 
1152 1 0.0260548 -0.0120702 0.00246214 302.675 
999 1 0.0279366 -0.0119296 0.00389669 302.201 
1316 1 0.0289735 -0.011821 0.0021899 302.233 
797 1 0.029953 -0.0124734 0.00395094 302.249 
1264 1 0.0315301 -0.0122716 0.00273395 300.669 
20 1 0.0336445 -0.0118753 0.00261523 304.47 
1336 1 0.0350723 -0.0118548 0.00401562 303.026 
1126 1 0.0354465 -0.0110244 0.00213404 303.955 
233 1 0.0359508 -0.0129117 0.00256269 300.623 
450 1 0.0369507 -0.0113847 0.00340195 302.732 
160 1 0.0392319 -0.0123737 0.00369314 305.349 
724 1 0.0409925 -0.0114286 0.00230715 304.973 
876 1 0.0419024 -0.0120667 0.00396995 303.698 
872 1 0.0425493 -0.0128203 0.00223337 300.385 
704 1 0.0449215 -0.0120423 0.00276611 300.562 
945 1 0.0469145 -0.0120959 0.00292509 301.014 
221 1 0.0489219 -0.0120878 0.00278378 301.299 
1245 1 0.000999993 -0.00928449 0.00395345 308.418 
744 1 0.00199872 -0.0103191 0.00256345 303.487 
635 1 0.00390569 -0.00984746 0.00293895 307.107 
136 1 0.00590224 -0.00974057 0.00289044 307.628 
418 1 0.00782929 -0.00974667 0.00235529 306.726 
1057 1 0.0112144 -0.00913699 0.00230648 304.185 
259 1 0.0102857 -0.010154 0.00396539 313.292 
1318 1 0.0125372 -0.0106075 0.00262928 309.146 
725 1 0.0121185 -0.00937428 0.00414712 338.026 
1205 1 0.0144017 -0.00990101 0.00247217 313.361 
422 1 0.0163222 -0.0103914 0.00273907 302.91 
924 1 0.0183927 -0.0103733 0.00267041 306.86 
395 1 0.0200087 -0.0107212 0.00379621 304.325 
1195 1 0.0205045 -0.00947314 0.00231414 302.195 
500 1 0.0225748 -0.0102262 0.0026161 304.807 
213 1 0.0246572 -0.0105577 0.00272838 302.446 
909 1 0.0263344 -0.0095128 0.00242 309.77 
740 1 0.0265318 -0.0105259 0.00413308 312.41 
521 1 0.0284821 -0.00929895 0.00254496 315.656 
997 1 0.0297075 -0.0105331 0.00353251 310.699 
445 1 0.0304806 -0.00911342 0.00235493 313.397 
1261 1 0.0322714 -0.0104207 0.00289093 302.46 
529 1 0.0340991 -0.00964259 0.00265859 314.338 
277 1 0.0355513 -0.00991304 0.00402491 314.85 
124 1 0.0367214 -0.00947922 0.002462 314.411 
960 1 0.0385169 -0.0102744 0.00284128 307.396 
510 1 0.0401572 -0.0106169 0.00393302 327.97 
533 1 0.0434256 -0.0107171 0.00268929 304.115 
552 1 0.044975 -0.00945352 0.0026339 312.323 
697 1 0.0458235 -0.0106606 0.00398403 308.421 
440 1 0.0475928 -0.00981798 0.00358448 306.996 
1021 1 0.0490805 -0.0100354 0.00226562 307.506 
95 1 0.0495155 -0.0105984 0.00413479 314.104 
564 1 0.00099999 -0.00828587 0.00219099 303.69 
1178 1 0.00294431 -0.00812116 0.0026297 302.859 
1005 1 0.00493772 -0.00799531 0.00273643 320.185 
284 1 0.00642498 -0.00807971 0.00407095 325.134 
27 1 0.00807073 -0.00718883 0.00266529 331.026 
344 1 0.00938651 -0.00866083 0.00298457 314.949 
455 1 0.0105623 -0.00708018 0.00263943 328.107 
636 1 0.0124312 -0.00770239 0.00298568 315.297 
1006 1 0.0139625 -0.00858986 0.00391714 340.048 
457 1 0.0154895 -0.00790228 0.00238508 301.448 
719 1 0.0174886 -0.00898444 0.00379015 335.616 
970 1 0.0173748 -0.00710733 0.00303941 314.063 
179 1 0.019032 -0.00819104 0.00275844 323.642 
138 1 0.0218439 -0.00861733 0.00355266 321.845 
818 1 0.0203462 -0.00738063 0.00402971 379.065 
246 1 0.0236322 -0.00852863 0.00260825 306.951 
52 1 0.0251761 -0.00874884 0.00386041 330.305 
788 1 0.0270982 -0.00816529 0.00368523 322.706 
988 1 0.028116 -0.00722336 0.00224411 330.736 
490 1 0.0294674 -0.00792801 0.00361716 336.545 
84 1 0.031579 -0.00882185 0.0040007 348.159 
574 1 0.0326897 -0.00787248 0.00263506 314.83 
1270 1 0.0346324 -0.00763772 0.00222151 311.821 
890 1 0.0361877 -0.00783246 0.00346367 335.308 
51 1 0.0380266 -0.00798128 0.00269142 331.775 
631 1 0.0399048 -0.00892272 0.00234495 303.832 
96 1 0.0393912 -0.00787195 0.00414942 368.797 
511 1 0.0410111 -0.00732224 0.00280826 309.257 
466 1 0.041122 -0.00887299 0.00410041 360.709 
1303 1 0.0421003 -0.00893786 0.00235721 317.778 
958 1 0.0436162 -0.00824038 0.00345969 337.207 
801 1 0.0466159 -0.00823817 0.00279014 316.514 
12 1 0.0485517 -0.00783185 0.00249456 315.456 
1322 1 0.00166231 -0.00652449 0.00286836 315.297 
1341 1 0.00396419 -0.00627271 0.00244508 316.029 
558 1 0.00510905 -0.00651309 0.00406821 369.057 
1255 1 0.00617585 -0.0056989 0.0025853 327.185 
56 1 0.00920399 -0.00554256 0.00273928 348.483 
1328 1 0.0124008 -0.00589791 0.00386145 392.675 
981 1 0.0141383 -0.00669754 0.00326137 323.165 
63 1 0.016488 -0.00538171 0.00255375 332.069 
942 1 0.0197866 -0.00626282 0.00246853 337.917 
1115 1 0.0187325 -0.00616465 0.0041654 369.066 
394 1 0.0204476 -0.00512481 0.00397452 339.997 
433 1 0.0221624 -0.00664013 0.00363846 385.759 
1004 1 0.0238057 -0.00623755 0.0025719 341.772 
957 1 0.0256907 -0.00562412 0.0028533 319.661 
436 1 0.0276169 -0.00518118 0.0025475 355.365 
769 1 0.0283152 -0.00634638 0.0040305 402.335 
141 1 0.0300155 -0.00540323 0.00326521 356.034 
59 1 0.0319484 -0.00601689 0.00271977 328.126 
104 1 0.0339034 -0.00541545 0.00219479 323.566 
489 1 0.0353605 -0.00612222 0.00408883 357.84 
1166 1 0.0366481 -0.00613693 0.00250276 309.969 
58 1 0.0378524 -0.00653306 0.00405974 373.726 
593 1 0.0392466 -0.00639765 0.00263055 326.319 
897 1 0.041185 -0.00533196 0.00253628 352.478 
1 1 0.0428685 -0.00661072 0.0025736 315.371 
759 1 0.0446992 -0.00576291 0.00298167 335.989 
396 1 0.0462771 -0.0066257 0.00392378 349.546 
1234 1 0.0482705 -0.00512445 0.00266 329.925 
3839 1 0.0498275 -0.00635211 0.00292208 341.666 
539 1 0.000999991 -0.00463755 0.00284091 310.385 
502 1 0.0028692 -0.00496099 0.00348449 314.884 
1090 1 0.00241806 -0.00326162 0.00253127 315.981 
666 1 0.00465322 -0.00440221 0.00271947 319.679 
102 1 0.00755571 -0.00396157 0.00273142 348.146 
263 1 0.00952789 -0.00357948 0.00294262 378.541 
659 1 0.0111076 -0.00492458 0.00267413 328.51 
61 1 0.0132155 -0.00474062 0.00244835 343.019 
701 1 0.014857 -0.00485586 0.003585 364.958 
968 1 0.0144952 -0.00320426 0.00249262 351.35 
949 1 0.0164875 -0.00336364 0.00242094 341.699 
815 1 0.0184075 -0.00482756 0.00266398 338.78 
941 1 0.0219151 -0.00493099 0.00262965 332.31 
793 1 0.0203805 -0.00364863 0.00260586 346.269 
371 1 0.0217992 -0.00348212 0.00400576 404.346 
437 1 0.0237219 -0.00436751 0.00327611 328.19 
232 1 0.0256883 -0.00374046 0.00360621 350.048 
1053 1 0.0274331 -0.0032043 0.00278871 330.464 
1113 1 0.0294168 -0.00367225 0.0024619 365.493 
239 1 0.0285386 -0.00436099 0.00412155 445.14 
125 1 0.0313661 -0.00411936 0.00247416 340.223 
503 1 0.0305202 -0.00320882 0.00406428 413.888 
685 1 0.0338027 -0.00315327 0.00216831 329.013 
1183 1 0.0329001 -0.00455259 0.00369441 337.083 
607 1 0.0355435 -0.00451931 0.00290681 350.898 
670 1 0.0344352 -0.0033252 0.00406679 424.166 
337 1 0.0372277 -0.00348272 0.00320522 360.237 
1129 1 0.0385362 -0.00458563 0.00217014 328.209 
731 1 0.0397943 -0.0039422 0.00358553 398.228 
571 1 0.0429846 -0.00447594 0.00270542 329.06 
971 1 0.0428698 -0.00304037 0.00409671 423.917 
708 1 0.0447234 -0.00389631 0.00371446 347.468 
886 1 0.0466457 -0.00466918 0.00373368 331.174 
1181 1 0.0478672 -0.0031672 0.00257964 351.679 
7 1 0.000999995 -0.00224926 0.00351349 324.317 
194 1 0.00444504 -0.00241389 0.00266259 341.88 
824 1 0.00663811 -0.002199 0.00250483 346.321 
850 1 0.00789364 -0.0024833 0.00403545 361.681 
520 1 0.00878403 -0.00181657 0.00236061 362.601 
1122 1 0.011365 -0.00295271 0.00246086 361.774 
1071 1 0.0110248 -0.00157098 0.0038662 424.29 
1326 1 0.0128951 -0.00189142 0.00319063 367.24 
592 1 0.0149515 -0.00128289 0.00280888 374.592 
251 1 0.0169801 -0.001426 0.00247444 346.775 
702 1 0.0161354 -0.00228746 0.00406953 339.213 
1149 1 0.0180125 -0.00280077 0.00358607 388.478 
379 1 0.0189674 -0.00158635 0.00231587 346.693 
1284 1 0.0210353 -0.00176092 0.00269408 374.965 
794 1 0.0227832 -0.00284188 0.00238658 350.118 
448 1 0.0225297 -0.0013417 0.0039554 416.897 
1114 1 0.0242126 -0.00239472 0.00371208 402.132 
1335 1 0.0270199 -0.00120829 0.00282432 404.86 
687 1 0.0291767 -0.00168212 0.00229324 369.31 
753 1 0.0287052 -0.00236798 0.00411184 443.806 
628 1 0.0312942 -0.00143576 0.00223057 332.107 
937 1 0.0323336 -0.00265285 0.00342984 381.053 
637 1 0.0355118 -0.00215918 0.00284971 368.179 
998 1 0.0373732 -0.001489 0.00314284 357.433 
128 1 0.0393168 -0.00208354 0.00264561 346.468 
871 1 0.0411969 -0.00260098 0.00308983 326.277 
992 1 0.0426257 -0.00120919 0.00294356 349.585 
587 1 0.0438385 -0.00269671 0.00238109 356.141 
710 1 0.0445866 -0.00189194 0.0040522 426.618 
512 1 0.0461727 -0.00207084 0.00270327 319.955 
21 1 0.0478069 -0.00170423 0.00394202 435.697 
1170 1 0.0495766 -0.00258666 0.00344025 377.899 
822 1 0.000999987 -0.000473589 0.00259319 319.82 
109 1 0.0024542 -0.000832872 0.00391839 358.813 
528 1 0.00578114 -0.000842966 0.00394346 421.982 
242 1 0.00411277 -0.000225061 0.00285187 340.653 
144 1 0.00763281 -0.000245222 0.00300108 372.963 
1192 1 0.00914761 -0.000927255 0.00411472 417.305 
419 1 0.00945075 0.000512878 0.0026542 380.104 
412 1 0.0112445 -0.000305026 0.0023172 326.024 
1076 1 0.0126516 8.4254e-06 0.00379379 415.936 
62 1 0.0149188 0.000712616 0.0026792 391.856 
296 1 0.0169126 0.000567618 0.00261911 385.869 
1125 1 0.0179476 -0.000535511 0.00398153 394.661 
229 1 0.0189022 0.000404401 0.0024965 375.984 
1121 1 0.0207436 0.000143193 0.00323189 392.281 
1269 1 0.0233602 0.000450973 0.00361969 432.656 
182 1 0.0248598 -0.000777839 0.00272881 332.566 
438 1 0.0259157 0.000919027 0.00280466 417.625 
1194 1 0.0286065 0.000232978 0.00237905 376.582 
896 1 0.0318096 -0.000830484 0.00406577 431.768 
1030 1 0.0305119 0.000242498 0.00298658 384.405 
334 1 0.033172 -0.000725086 0.00260031 314.834 
19 1 0.0356439 -0.00022773 0.00234772 379.555 
65 1 0.0377027 0.000305464 0.00232351 369.025 
1120 1 0.0390534 -0.000489579 0.00382456 409.689 
1079 1 0.0395763 0.00096548 0.00255594 372.018 
1268 1 0.0407291 -0.00066785 0.0026123 363.719 
267 1 0.0425149 0.000767667 0.00266122 365.278 
307 1 0.0436758 2.84904e-05 0.00411238 446.783 
640 1 0.0445885 -0.000664407 0.00247324 379.647 
1235 1 0.0459945 0.00043435 0.00337651 374.083 
559 1 0.0474154 -0.000541394 0.0023621 329.387 
70 1 0.0493083 -0.000516063 0.00336394 390.603 
777 1 0.000999995 0.00110825 0.00381703 324.625 
471 1 0.000999996 0.00219067 0.00213525 319.844 
1043 1 0.00259936 0.0010612 0.00261711 342.154 
1165 1 0.0043985 0.00192522 0.00248846 367.11 
1342 1 0.00615918 0.00122393 0.00312734 378.461 
948 1 0.00824989 0.00209418 0.00238418 353.979 
73 1 0.00954494 0.00198347 0.0040064 421.588 
505 1 0.0109079 0.00187772 0.00253671 338.564 
921 1 0.0128894 0.00162969 0.00264707 340.541 
698 1 0.0148031 0.00263621 0.00214408 377.978 
542 1 0.0161275 0.00214771 0.00356089 385.35 
202 1 0.0179548 0.00149021 0.00405531 448.175 
1312 1 0.0198177 0.00190183 0.00345535 425.493 
1100 1 0.0218928 0.00199069 0.0026682 397.993 
902 1 0.024654 0.0020511 0.00386609 439.745 
715 1 0.0275718 0.00203697 0.00271739 416.119 
209 1 0.0292263 0.00157551 0.00374179 435.708 
68 1 0.030945 0.00242399 0.00317064 388.241 
189 1 0.0323332 0.0010903 0.00262827 348.738 
122 1 0.0331342 0.00221269 0.00408336 395.145 
1112 1 0.0343195 0.0011875 0.00284081 359.906 
1259 1 0.0371473 0.00244187 0.00221728 394.791 
570 1 0.0366618 0.0011466 0.00380976 444.066 
1070 1 0.0392343 0.0028996 0.00293307 355.228 