ITEM: TIMESTEP
20195000
ITEM: NUMBER OF ATOMS
5000
ITEM: BOX BOUNDS mm mm mm
0 0.1
-0.015 0.015
0 0.3
ITEM: ATOMS id type x y z f_Temp[0] 
977 1 0.00102825 -0.014 0.000999993 300.032 
581 1 0.00280539 -0.013082 0.000999998 300 
980 1 0.00536401 -0.0139934 0.000999992 300.033 
1252 1 0.00736682 -0.0139976 0.000999998 300 
648 1 0.00943464 -0.014 0.000999991 300.1 
1049 1 0.0114353 -0.0139953 0.000999998 300 
585 1 0.0133901 -0.013565 0.000999998 300 
453 1 0.0153494 -0.0139698 0.000999997 300.006 
812 1 0.0173493 -0.0139998 0.000999993 300.084 
1111 1 0.0195007 -0.0134438 0.000999984 300.097 
713 1 0.021422 -0.014 0.000999994 300.024 
1065 1 0.0234048 -0.014 0.00126756 300.012 
82 1 0.0265155 -0.0139931 0.000999994 300.056 
383 1 0.0285156 -0.014 0.000999992 300.052 
930 1 0.030521 -0.014 0.000999997 300.154 
936 1 0.0322405 -0.014 0.00202133 300.166 
1185 1 0.0365621 -0.014 0.000999997 300.051 
961 1 0.0387276 -0.014 0.00158109 300.154 
397 1 0.0415067 -0.014 0.000999998 300.048 
434 1 0.0453634 -0.0139995 0.000999989 300.023 
845 1 0.0473634 -0.013996 0.000999993 300.01 
69 1 0.0493634 -0.014 0.000999998 300 
775 1 0.00100002 -0.0113754 0.000999998 300 
100 1 0.0029795 -0.0110896 0.000999992 300.241 
914 1 0.00557519 -0.0112015 0.00100005 300.415 
80 1 0.00757517 -0.0111953 0.000999991 300.879 
451 1 0.00998402 -0.0120769 0.000999996 300.548 
796 1 0.00840292 -0.0126653 0.00207425 300.192 
693 1 0.0116631 -0.012314 0.00206038 300.652 
1317 1 0.0131863 -0.0115688 0.000999987 300.718 
915 1 0.0160944 -0.0121103 0.000999994 300.2 
410 1 0.0190455 -0.011496 0.000999996 300.201 
830 1 0.0224371 -0.0122702 0.000999998 300.001 
320 1 0.0247898 -0.0125822 0.000999992 300.092 
112 1 0.0274126 -0.0122056 0.000999996 300.193 
75 1 0.0305709 -0.0120006 0.000999993 300.614 
44 1 0.0325472 -0.012308 0.000999993 300.366 
903 1 0.0346614 -0.0124727 0.000999987 300.545 
501 1 0.0399655 -0.0125406 0.000999994 300.335 
606 1 0.0381813 -0.0121244 0.00200969 300.618 
895 1 0.0424953 -0.0112468 0.000999991 300.496 
98 1 0.0440827 -0.0124633 0.000999998 300.119 
591 1 0.0463628 -0.0121893 0.000999998 300 
260 1 0.0483399 -0.0113954 0.000999988 300.55 
341 1 0.00236835 -0.00912792 0.000999989 300.625 
781 1 0.00434315 -0.00962605 0.00099999 300.954 
163 1 0.00630249 -0.00922482 0.000999992 302.09 
180 1 0.00969329 -0.0104144 0.00207298 302.475 
657 1 0.0113778 -0.0106424 0.000999994 300.5 
479 1 0.0130888 -0.00957115 0.00099999 301.332 
1334 1 0.0156328 -0.00933789 0.000999989 301.449 
236 1 0.0173021 -0.0105161 0.00100003 300.784 
463 1 0.0189969 -0.0094543 0.000999987 301.786 
1058 1 0.020961 -0.0109208 0.000999997 300.258 
214 1 0.021988 -0.00920459 0.000999991 301.866 
48 1 0.0236592 -0.010687 0.000999996 300.398 
1001 1 0.0256579 -0.0107646 0.000999989 300.472 
157 1 0.0275721 -0.0101849 0.00099999 302.016 
154 1 0.0295703 -0.010269 0.000999998 302.362 
849 1 0.0316899 -0.0101271 0.000999998 300.208 
986 1 0.0337356 -0.0106994 0.000999992 301.667 
352 1 0.0353603 -0.00937906 0.000999998 301.925 
391 1 0.037078 -0.0107965 0.00099999 301.312 
828 1 0.0380495 -0.00904828 0.000999991 303.441 
1302 1 0.0391669 -0.010707 0.000999988 300.935 
1153 1 0.0410033 -0.00991491 0.000999992 301.458 
1029 1 0.0435086 -0.00935559 0.000999995 301.368 
734 1 0.0450013 -0.0106867 0.000999997 300.318 
168 1 0.0467898 -0.0104128 0.001852 300.756 
673 1 0.0479253 -0.00900397 0.000999991 301.698 
230 1 0.00208414 -0.00710001 0.000999993 302.645 
962 1 0.00400567 -0.00765473 0.000999989 303.526 
829 1 0.00807393 -0.0082964 0.000999989 305.655 
409 1 0.0100683 -0.00814704 0.00100015 303.068 
524 1 0.0120481 -0.00786324 0.000999994 303.123 
1221 1 0.0140493 -0.00781584 0.000999998 300.099 
1092 1 0.0173393 -0.0086903 0.00181755 303.928 
461 1 0.016624 -0.00701102 0.000999992 302.835 
1062 1 0.0197951 -0.00762048 0.000999986 306.875 
790 1 0.0215614 -0.00748521 0.00192831 310.479 
200 1 0.0233297 -0.00737885 0.000999993 305.739 
602 1 0.0247258 -0.00899514 0.000999997 300.811 
546 1 0.0254076 -0.0074302 0.00204216 302.633 
1240 1 0.0269157 -0.00822994 0.000999998 300.471 
247 1 0.0292594 -0.00829331 0.00099999 305.993 
973 1 0.0315646 -0.00811889 0.00099999 303.923 
1319 1 0.0334732 -0.00871669 0.000999992 303.103 
947 1 0.0365133 -0.00779137 0.00138712 301.806 
238 1 0.0398083 -0.00744564 0.000999998 303.211 
162 1 0.0418495 -0.00748745 0.000999997 300.635 
367 1 0.0444121 -0.00769988 0.0016651 301.863 
1274 1 0.0459344 -0.00881346 0.000999986 302.154 
1074 1 0.0498518 -0.00837807 0.000999998 300 
28 1 0.0010002 -0.00541922 0.000999994 302.568 
956 1 0.00299505 -0.00525866 0.000999998 300 
134 1 0.00500411 -0.00536152 0.000999994 306.441 
825 1 0.00684751 -0.00671657 0.000999995 306.187 
976 1 0.00894151 -0.00649438 0.000999994 311.739 
169 1 0.0109715 -0.00601028 0.000999993 308.297 
556 1 0.0129962 -0.00610228 0.000999995 309.281 
421 1 0.0149261 -0.00609382 0.001525 307.122 
1217 1 0.0184323 -0.00615665 0.000999998 305.528 
1325 1 0.0210608 -0.00573748 0.000999998 300 
496 1 0.0230199 -0.00528279 0.000999996 309.874 
639 1 0.024956 -0.005784 0.00099999 309.495 
1151 1 0.0269057 -0.0062297 0.000999984 311.521 
443 1 0.0289792 -0.00544527 0.000999998 300 
1231 1 0.0310306 -0.00545216 0.000999998 300 
146 1 0.0303193 -0.00698151 0.00207498 313.396 
1290 1 0.0330366 -0.00676492 0.000999997 304.678 
1075 1 0.0353259 -0.00621403 0.000999995 304.044 
618 1 0.038025 -0.00654034 0.000999998 300.678 
83 1 0.0399098 -0.00544822 0.000999985 312.418 
974 1 0.0424605 -0.00544572 0.000999991 309.336 
1289 1 0.0449382 -0.00588859 0.000999992 305.971 
772 1 0.0466402 -0.00609637 0.0020296 309.986 
530 1 0.0482999 -0.00652692 0.000999994 303.152 
283 1 0.00371056 -0.00338742 0.000999998 300 
750 1 0.00569457 -0.00311854 0.000999998 300 
234 1 0.00689912 -0.00471724 0.000999994 312.2 
1025 1 0.00808684 -0.003108 0.000999998 300 
139 1 0.00957627 -0.00451692 0.000999998 300 
791 1 0.0119528 -0.0041857 0.000999985 322.232 
402 1 0.0153626 -0.004214 0.000999994 312.592 
1087 1 0.017357 -0.00447035 0.000999991 313.311 
519 1 0.0193899 -0.00431182 0.000999993 315.777 
275 1 0.0216938 -0.00378558 0.000999994 310.563 
142 1 0.0249492 -0.00393316 0.00175782 317.146 
90 1 0.0267754 -0.00423396 0.000999996 310.603 
492 1 0.032699 -0.00434362 0.000999993 312.733 
749 1 0.0350091 -0.00423928 0.000999994 312.932 
1187 1 0.0369358 -0.00484893 0.000999997 304.923 
175 1 0.0402006 -0.00358298 0.00166048 323.815 
1050 1 0.0420853 -0.00347573 0.000999995 308.182 
846 1 0.0439728 -0.00413701 0.000999988 312.52 
424 1 0.0456873 -0.00431841 0.00201368 311.549 
1243 1 0.0474114 -0.00430605 0.000999998 311.265 
3721 1 0.0493439 -0.00482097 0.000999988 307.818 
77 1 0.0010649 -0.00207896 0.000999998 300 
37 1 0.00269634 -0.00135299 0.00200246 324.305 
1108 1 0.00442621 -0.00130241 0.000999983 323.594 
385 1 0.0074663 -0.0011745 0.000999988 329.373 
89 1 0.0100508 -0.00255563 0.000999998 300 
318 1 0.0118586 -0.00167902 0.000999998 312.589 
32 1 0.0138228 -0.00205531 0.000999998 308.74 
964 1 0.0158217 -0.00212183 0.000999998 307.472 
1180 1 0.0177825 -0.00251614 0.000999993 314.426 
885 1 0.0201852 -0.00247261 0.000999997 316.639 
264 1 0.0220832 -0.00158202 0.000999986 326.53 
258 1 0.0241116 -0.00228266 0.001 324.339 
291 1 0.0258098 -0.00110755 0.000999998 310.228 
1052 1 0.0282802 -0.00291658 0.000999992 324.787 
486 1 0.0304223 -0.00274938 0.000999993 317.498 
401 1 0.0328101 -0.00186878 0.000999996 311.487 
91 1 0.0348112 -0.00186302 0.00099999 318.612 
1248 1 0.0364864 -0.00291987 0.00127711 310.592 
1196 1 0.0384654 -0.00283657 0.000999995 312.196 
351 1 0.0409167 -0.00183629 0.000999995 318.208 
1003 1 0.0429074 -0.00158968 0.000999997 311.461 
545 1 0.0452833 -0.00262575 0.000999997 315.448 
31 1 0.0472197 -0.00212533 0.000999991 314.212 
1027 1 0.0491105 -0.00283465 0.000999996 304.572 
620 1 0.00150677 0.000624044 0.000999984 315.956 
817 1 0.00370963 0.00056965 0.000999998 300 
127 1 0.00591125 -0.000406584 0.00199601 353.952 
306 1 0.00756563 0.000823028 0.000999994 318.413 
167 1 0.00960301 -0.000600847 0.000999992 333.723 
721 1 0.0132144 -0.000384327 0.00191523 347.964 
33 1 0.0157872 -0.000111292 0.000999998 300 
522 1 0.0178042 -0.000351182 0.000999998 300 
1330 1 0.0201725 -0.000472045 0.000999998 300 
624 1 0.0239822 -0.000286865 0.000999988 331.298 
799 1 0.0222849 0.000162791 0.00195755 357.526 
644 1 0.0278053 -0.000973797 0.000999988 336.112 
181 1 0.0267602 0.000746105 0.000999994 341.511 
289 1 0.0300684 -0.000444246 0.000999989 325.966 
899 1 0.0320249 -2.93762e-05 0.000999997 312.637 
184 1 0.0341146 1.68759e-05 0.000999998 302.067 
1191 1 0.0369446 -0.000988255 0.000999998 307.707 
625 1 0.0395902 -0.000291048 0.000999998 313.888 
250 1 0.0417007 7.81933e-06 0.000999996 325.044 
1247 1 0.0440457 0.000574446 0.000999991 325.578 
518 1 0.045939 -0.000588995 0.000999992 333.825 
198 1 0.0476838 0.000898651 0.000999998 300 
527 1 0.0488465 -0.000852146 0.000999995 313.495 
904 1 0.0494914 0.00083641 0.00185608 338.511 
305 1 0.00264916 0.00226565 0.00100002 324.706 
408 1 0.00557638 0.00129512 0.000999993 338.14 
1037 1 0.00643218 0.00282586 0.00196146 366.251 
1054 1 0.00968458 0.00225442 0.000999996 318.69 
310 1 0.0118962 0.00105154 0.000999998 304.601 
364 1 0.0129022 0.00293552 0.000999998 309.615 
392 1 0.0139525 0.00123354 0.000999991 329.898 
430 1 0.0169059 0.00174167 0.000999993 334.912 
723 1 0.0189959 0.0017279 0.000999992 326.104 
279 1 0.0209923 0.00135248 0.000999998 300 
1099 1 0.0248586 0.00295496 0.000999993 338.492 
1044 1 0.0241312 0.00141222 0.00204443 372.997 
1226 1 0.0268526 0.0027672 0.000999989 354.321 
474 1 0.0285332 0.00167963 0.000999992 332.508 
1175 1 0.0304799 0.00146998 0.0014079 339.059 
280 1 0.033244 0.00181831 0.000999998 308.458 
476 1 0.0350733 0.0024588 0.0014934 333.075 
735 1 0.0363974 0.00104339 0.000999985 342.646 
311 1 0.0384834 0.00158561 0.000999987 344.991 
562 1 0.0405308 0.00178272 0.000999989 340.118 
197 1 0.0425283 0.0018813 0.000999995 326.138 
615 1 0.0443907 0.00261031 0.000999986 339.963 
568 1 0.0458138 0.00132471 0.00156747 363.905 
1197 1 0.0497082 0.00263088 0.000999994 338.943 
366 1 0.00100063 0.00383724 0.000999997 306.188 
920 1 0.0043839 0.00326097 0.00099999 329.85 
1036 1 0.00644525 0.00457953 0.000999989 331.394 
314 1 0.00844639 0.0042019 0.000999998 300 
1224 1 0.0104826 0.00408961 0.000999992 333.842 
1124 1 0.0123036 0.0049164 0.000999992 340.972 
1286 1 0.0152051 0.00422662 0.000999983 344.271 
972 1 0.0186014 0.00369399 0.000999996 320.587 
493 1 0.0202753 0.0030119 0.00185588 369.166 
939 1 0.02075 0.00475605 0.000999988 350.027 
923 1 0.0220823 0.00307749 0.000999993 336.054 
241 1 0.0235323 0.00445514 0.00099999 348.533 
322 1 0.0254857 0.00479463 0.00147149 353.047 
485 1 0.0274261 0.00468323 0.000999995 338.527 
814 1 0.0294225 0.00456453 0.000999989 344.47 
1229 1 0.031651 0.00303909 0.000999991 335.716 
879 1 0.0329332 0.0047268 0.000999998 300 
1019 1 0.0354244 0.00436559 0.000999992 338.327 
26 1 0.0374497 0.00408387 0.000999998 300 
946 1 0.0393305 0.00340354 0.000999998 312.427 
1314 1 0.041438 0.0035651 0.000999997 330.606 
300 1 0.0429164 0.00497018 0.000999991 339.248 
757 1 0.0450353 0.00455743 0.000999996 329.6 
121 1 0.0464429 0.00313648 0.000999998 300 
2899 1 0.0491937 0.0045982 0.000999981 347.391 
235 1 0.0481355 0.00327053 0.00205706 374.091 
852 1 0.00147344 0.00578054 0.000999994 306.153 
143 1 0.00359123 0.00509717 0.000999997 325.545 
712 1 0.00611097 0.00655139 0.000999995 328.717 
857 1 0.00765647 0.00583318 0.0020467 349.968 
156 1 0.0101027 0.00606712 0.000999991 336.968 
733 1 0.0125017 0.00690655 0.000999988 345.561 
761 1 0.0142907 0.00601074 0.000999998 300 
1306 1 0.0170989 0.00501409 0.000999991 332.235 
1285 1 0.0165013 0.00696625 0.000999998 306.613 
237 1 0.0189814 0.0056897 0.000999997 327.002 
621 1 0.0222928 0.00602882 0.00099999 339.215 
1134 1 0.0242725 0.00631312 0.000999989 341.665 
1154 1 0.028986 0.0067722 0.000999991 344.069 
332 1 0.0310772 0.00569306 0.000999998 300 
404 1 0.0326452 0.00696578 0.000999994 332.619 
1299 1 0.0344553 0.0061151 0.000999994 331.392 
1088 1 0.0366774 0.00592881 0.000999988 360.788 
54 1 0.0390828 0.00538836 0.000999994 332.718 
176 1 0.0410339 0.00582837 0.000999992 333.04 
544 1 0.0455154 0.00651436 0.000999998 300 
469 1 0.0472716 0.00515104 0.000999995 326.387 
14 1 0.0486979 0.00655309 0.000999996 336.286 
741 1 0.000999996 0.00772368 0.00100003 310.433 
187 1 0.00278473 0.00862649 0.000999991 320.891 
540 1 0.00401709 0.00705129 0.000999987 324.621 
193 1 0.00477726 0.00895773 0.000999998 300 
253 1 0.0068207 0.00842122 0.000999996 325.494 
959 1 0.00850773 0.00730957 0.000999992 333.552 
328 1 0.0114071 0.00885051 0.000999998 300 
718 1 0.0132987 0.00844915 0.0019926 347.802 
978 1 0.0151909 0.00848408 0.000999991 336.396 
488 1 0.0171399 0.00893312 0.000999991 329.24 
847 1 0.0186891 0.00766823 0.000999992 331.193 
473 1 0.0206947 0.00740126 0.000999998 300 
854 1 0.0226507 0.00799697 0.000999991 345.226 
207 1 0.026375 0.00739617 0.000999998 300.119 
513 1 0.0293352 0.00896057 0.00151575 328.327 
651 1 0.0307733 0.00766986 0.000999989 332.902 
1298 1 0.0326488 0.00875108 0.00190147 330.389 
1244 1 0.0353883 0.00770327 0.00177925 364.263 
611 1 0.0372176 0.00791835 0.000999986 339.483 
730 1 0.0393597 0.00754684 0.000999997 328.178 
835 1 0.0417267 0.00744182 0.00195747 376.401 
110 1 0.0436805 0.00766014 0.000999996 330.028 
428 1 0.0469194 0.00795518 0.000999997 309.427 
174 1 0.0497579 0.00825521 0.000999987 347.011 
205 1 0.00100021 0.00991911 0.000999985 310.959 
177 1 0.00272024 0.0104073 0.001908 321.271 
674 1 0.00638342 0.0103728 0.000999989 324.943 
79 1 0.00942032 0.00908922 0.000999998 333.605 
1320 1 0.0104938 0.0103921 0.00207241 346.381 
779 1 0.012119 0.0108494 0.00100017 330.202 
292 1 0.0139551 0.0100566 0.000999991 330.907 
11 1 0.015904 0.0105056 0.00099999 325.795 
50 1 0.0188973 0.00950435 0.00176508 321.491 
1042 1 0.0207436 0.00942881 0.000999998 306.139 
694 1 0.0226224 0.0101149 0.000999989 331.974 
147 1 0.0240051 0.00907428 0.00200252 360.689 
983 1 0.0256274 0.00967679 0.000999989 329.636 
798 1 0.0278229 0.0101635 0.000999996 312.516 
966 1 0.0311269 0.00968438 0.000999995 316.912 
1186 1 0.033815 0.0102344 0.000999995 322.877 
1091 1 0.035782 0.00950263 0.000999993 336.127 
93 1 0.0382867 0.00960858 0.000999998 331.618 
1160 1 0.0399631 0.0106994 0.000999988 318.375 
575 1 0.0411762 0.00910919 0.00099999 334.318 
985 1 0.04312 0.00957997 0.000999996 318.756 
359 1 0.0453271 0.00941899 0.000999995 326.148 
969 1 0.0472618 0.00992566 0.000999998 313.42 
78 1 0.0492059 0.0103951 0.000999992 315.373 
363 1 0.000999994 0.0125472 0.000999995 303.481 
811 1 0.00296408 0.0122886 0.00127469 311.169 
743 1 0.00449491 0.0110312 0.000999993 312.542 
1251 1 0.00600936 0.0123375 0.000999995 310.567 
72 1 0.009055 0.0112752 0.000999994 320.511 
1313 1 0.0110293 0.0125265 0.00099999 316.895 
654 1 0.0139151 0.0120596 0.000999989 322.405 
271 1 0.0178307 0.0110467 0.000999998 300 
15 1 0.0191506 0.0123316 0.00178965 317.367 
215 1 0.0208644 0.0116686 0.00099999 317.63 
420 1 0.0226323 0.0118976 0.00190669 323.136 
449 1 0.0244554 0.012149 0.000999998 308.356 
39 1 0.0263672 0.0115349 0.000999992 314.487 
188 1 0.0295985 0.0111181 0.000999991 321.518 
425 1 0.028129 0.0124814 0.000999992 307.304 
1095 1 0.0312193 0.01229 0.000999998 300.001 
1227 1 0.033219 0.0122468 0.000999995 312.941 
119 1 0.0353449 0.0122917 0.000999998 300 
650 1 0.0369685 0.0111127 0.000999989 324.833 
1138 1 0.0386186 0.0122428 0.000999992 318.273 
979 1 0.0405124 0.0124274 0.00184388 328.322 
316 1 0.0424181 0.0117033 0.000999998 308.104 
1297 1 0.0443447 0.0111611 0.00099999 323.734 
1206 1 0.046545 0.0118446 0.000999993 320.039 
380 1 0.0484365 0.0121497 0.00157368 312.161 
347 1 0.00209295 0.014 0.00183359 303.581 
309 1 0.00396196 0.014 0.000999998 304.722 
1130 1 0.00566062 0.014 0.00205571 311.346 
807 1 0.00735927 0.014 0.000999991 307.169 
114 1 0.00931258 0.0135525 0.000999993 308.519 
240 1 0.0123816 0.014 0.000999997 306.89 
672 1 0.0144052 0.014 0.000999998 304.015 
729 1 0.0161846 0.014 0.00191321 313.283 
758 1 0.0179409 0.0137147 0.000999996 308.325 
1038 1 0.0199206 0.014 0.000999993 306.963 
81 1 0.0217812 0.0139926 0.00173331 312.179 
676 1 0.0236419 0.0139761 0.000999994 306.501 
534 1 0.0264769 0.0137793 0.000999998 300 
526 1 0.0299137 0.014 0.000999997 302.639 
101 1 0.0322566 0.014 0.000999994 307.075 
1304 1 0.0342566 0.014 0.00099999 309.079 
1171 1 0.037062 0.0139128 0.000999998 300 
442 1 0.0396097 0.014 0.000999989 314.34 
348 1 0.0423179 0.0137132 0.000999998 300 
626 1 0.0443208 0.014 0.000999994 307.123 
935 1 0.0466486 0.0139496 0.000999998 300 
766 1 0.0489339 0.014 0.000999995 307.696 
728 1 0.00392052 -0.014 0.00238429 300.085 
1249 1 0.00256444 -0.0132265 0.00363435 300.311 
929 1 0.00450257 -0.0131416 0.00412055 300.505 
1137 1 0.00634469 -0.014 0.00274303 300.102 
1097 1 0.0078871 -0.0133954 0.0038635 300.634 
598 1 0.0095839 -0.014 0.0029944 300.201 
1056 1 0.0115791 -0.014 0.0031329 300.228 
747 1 0.0135702 -0.014 0.00294461 300.059 
1337 1 0.0162623 -0.0135725 0.00273454 300.04 
789 1 0.0184969 -0.014 0.00263796 300.339 
894 1 0.0203583 -0.014 0.00336963 300.193 
507 1 0.0220847 -0.0132262 0.00272104 300.132 
170 1 0.0250702 -0.014 0.00238244 300.075 
993 1 0.0240141 -0.0139722 0.00408059 300.531 
1048 1 0.0275175 -0.0134232 0.00263438 300.207 
1267 1 0.0262053 -0.014 0.00402915 300.034 
43 1 0.0295 -0.014 0.00274091 300.162 
1169 1 0.0312288 -0.014 0.00374657 300.461 
1008 1 0.0331407 -0.0134146 0.0037886 300.18 
1168 1 0.0342309 -0.014 0.00221734 300.155 
288 1 0.0350354 -0.014 0.00404837 300.179 
158 1 0.0375146 -0.014 0.00317125 300.066 
47 1 0.0406544 -0.0133617 0.00269294 300.29 
274 1 0.0425983 -0.014 0.00386091 300.051 
652 1 0.0441287 -0.014 0.00257328 300.037 
689 1 0.0463276 -0.014 0.00275222 300.052 
1184 1 0.0483371 -0.014 0.00274697 300.049 
1026 1 0.000999991 -0.0126891 0.00251021 300.139 
261 1 0.000999995 -0.011326 0.00397369 300.551 
1343 1 0.00301409 -0.0113076 0.00397475 301.224 
87 1 0.00423913 -0.0120312 0.0022356 300.14 
355 1 0.00504244 -0.0112267 0.00391614 301.769 
1208 1 0.00656471 -0.0120234 0.00253146 300.142 
22 1 0.00843274 -0.011079 0.00371936 302.148 
378 1 0.0101037 -0.0120919 0.00329275 300.596 
1220 1 0.0128444 -0.012285 0.00367402 300.517 
4 1 0.0145348 -0.0124065 0.00221646 300.198 
336 1 0.015519 -0.0118383 0.00386221 300.231 
622 1 0.0176585 -0.0122282 0.00224094 300.126 
1077 1 0.0174136 -0.0112732 0.00416425 300.7 
736 1 0.0189909 -0.012447 0.00379728 301.719 
681 1 0.0203697 -0.0122626 0.00236006 300.068 
859 1 0.022665 -0.0115618 0.00410205 301.308 
806 1 0.0239103 -0.0124121 0.00278814 300.519 
1152 1 0.0260548 -0.0120702 0.00246214 300.515 
999 1 0.0279366 -0.0119296 0.00389669 300.566 
1316 1 0.0289735 -0.011821 0.0021899 300.823 
797 1 0.029953 -0.0124734 0.00395094 300.815 
1264 1 0.0315301 -0.0122716 0.00273395 300.309 
20 1 0.0336445 -0.0118753 0.00261523 301.496 
1336 1 0.0350723 -0.0118548 0.00401562 301.355 
1126 1 0.0354465 -0.0110244 0.00213404 301.831 
233 1 0.0359508 -0.0129117 0.00256269 300.28 
450 1 0.0369507 -0.0113847 0.00340195 300.844 
160 1 0.0392319 -0.0123737 0.00369314 301.49 
724 1 0.0409925 -0.0114286 0.00230715 301.522 
876 1 0.0419024 -0.0120667 0.00396995 300.874 
872 1 0.0425493 -0.0128203 0.00223337 300.103 
704 1 0.0449215 -0.0120423 0.00276611 300.155 
945 1 0.0469145 -0.0120959 0.00292509 300.287 
221 1 0.0489219 -0.0120878 0.00278378 300.351 
1245 1 0.000999993 -0.00928449 0.00395345 301.942 
744 1 0.00199872 -0.0103191 0.00256345 300.893 
635 1 0.00390569 -0.00984746 0.00293895 302.033 
136 1 0.00590224 -0.00974057 0.00289044 303.738 
418 1 0.00782929 -0.00974667 0.00235529 303.497 
1057 1 0.0112144 -0.00913699 0.00230648 302.323 
259 1 0.0102857 -0.010154 0.00396539 303.431 
1318 1 0.0125372 -0.0106075 0.00262928 302.805 
725 1 0.0121185 -0.00937428 0.00414712 310.732 
1205 1 0.0144017 -0.00990101 0.00247217 303.181 
422 1 0.0163222 -0.0103914 0.00273907 300.962 
924 1 0.0183927 -0.0103733 0.00267041 301.966 
395 1 0.0200087 -0.0107212 0.00379621 301.357 
1195 1 0.0205045 -0.00947314 0.00231414 300.975 
500 1 0.0225748 -0.0102262 0.0026161 301.577 
213 1 0.0246572 -0.0105577 0.00272838 300.885 
909 1 0.0263344 -0.0095128 0.00242 303.604 
740 1 0.0265318 -0.0105259 0.00413308 303.317 
521 1 0.0284821 -0.00929895 0.00254496 306.957 
997 1 0.0297075 -0.0105331 0.00353251 303.785 
445 1 0.0304806 -0.00911342 0.00235493 305.772 
1261 1 0.0322714 -0.0104207 0.00289093 301.221 
529 1 0.0340991 -0.00964259 0.00265859 307.158 
277 1 0.0355513 -0.00991304 0.00402491 306.912 
124 1 0.0367214 -0.00947922 0.002462 305.903 
960 1 0.0385169 -0.0102744 0.00284128 302.248 
510 1 0.0401572 -0.0106169 0.00393302 310.387 
533 1 0.0434256 -0.0107171 0.00268929 301.343 
552 1 0.044975 -0.00945352 0.0026339 305.045 
697 1 0.0458235 -0.0106606 0.00398403 302.686 
440 1 0.0475928 -0.00981798 0.00358448 302.621 
1021 1 0.0490805 -0.0100354 0.00226562 303.058 
95 1 0.0495155 -0.0105984 0.00413479 306.167 
564 1 0.00099999 -0.00828587 0.00219099 301.97 
1178 1 0.00294431 -0.00812116 0.0026297 301.456 
1005 1 0.00493772 -0.00799531 0.00273643 310.185 
284 1 0.00642498 -0.00807971 0.00407095 313.292 
27 1 0.00807073 -0.00718883 0.00266529 320.509 
344 1 0.00938651 -0.00866083 0.00298457 308.471 
455 1 0.0105623 -0.00708018 0.00263943 316.525 
636 1 0.0124312 -0.00770239 0.00298568 307.564 
1006 1 0.0139625 -0.00858986 0.00391714 311.187 
457 1 0.0154895 -0.00790228 0.00238508 300.722 
719 1 0.0174886 -0.00898444 0.00379015 308.485 
970 1 0.0173748 -0.00710733 0.00303941 307.436 
179 1 0.019032 -0.00819104 0.00275844 309.229 
138 1 0.0218439 -0.00861733 0.00355266 307.104 
818 1 0.0203462 -0.00738063 0.00402971 333.523 
246 1 0.0236322 -0.00852863 0.00260825 302.854 
52 1 0.0251761 -0.00874884 0.00386041 312.839 
788 1 0.0270982 -0.00816529 0.00368523 308.551 
988 1 0.028116 -0.00722336 0.00224411 316.698 
490 1 0.0294674 -0.00792801 0.00361716 319.956 
84 1 0.031579 -0.00882185 0.0040007 319.143 
574 1 0.0326897 -0.00787248 0.00263506 307.722 
1270 1 0.0346324 -0.00763772 0.00222151 305.541 
890 1 0.0361877 -0.00783246 0.00346367 316.323 
51 1 0.0380266 -0.00798128 0.00269142 314.784 
631 1 0.0399048 -0.00892272 0.00234495 301.493 
96 1 0.0393912 -0.00787195 0.00414942 331.655 
511 1 0.0410111 -0.00732224 0.00280826 303.865 
466 1 0.041122 -0.00887299 0.00410041 326.336 
1303 1 0.0421003 -0.00893786 0.00235721 307.11 
958 1 0.0436162 -0.00824038 0.00345969 318.13 
801 1 0.0466159 -0.00823817 0.00279014 307.274 
12 1 0.0485517 -0.00783185 0.00249456 307.562 
1322 1 0.00166231 -0.00652449 0.00286836 307.089 
1341 1 0.00396419 -0.00627271 0.00244508 307.781 
558 1 0.00510905 -0.00651309 0.00406821 331.259 
1255 1 0.00617585 -0.0056989 0.0025853 316.429 
56 1 0.00920399 -0.00554256 0.00273928 334.83 
1328 1 0.0124008 -0.00589791 0.00386145 349.892 
981 1 0.0141383 -0.00669754 0.00326137 310.662 
63 1 0.016488 -0.00538171 0.00255375 319.509 
942 1 0.0197866 -0.00626282 0.00246853 322.773 
1115 1 0.0187325 -0.00616465 0.0041654 347.518 
394 1 0.0204476 -0.00512481 0.00397452 330.391 
433 1 0.0221624 -0.00664013 0.00363846 342.893 
1004 1 0.0238057 -0.00623755 0.0025719 320.536 
957 1 0.0256907 -0.00562412 0.0028533 312.445 
436 1 0.0276169 -0.00518118 0.0025475 338.216 
769 1 0.0283152 -0.00634638 0.0040305 361.151 
141 1 0.0300155 -0.00540323 0.00326521 336.525 
59 1 0.0319484 -0.00601689 0.00271977 318.521 
104 1 0.0339034 -0.00541545 0.00219479 316.85 
489 1 0.0353605 -0.00612222 0.00408883 333.192 
1166 1 0.0366481 -0.00613693 0.00250276 306.77 
58 1 0.0378524 -0.00653306 0.00405974 345.642 
593 1 0.0392466 -0.00639765 0.00263055 313.984 
897 1 0.041185 -0.00533196 0.00253628 335.421 
1 1 0.0428685 -0.00661072 0.0025736 306.808 
759 1 0.0446992 -0.00576291 0.00298167 319.217 
396 1 0.0462771 -0.0066257 0.00392378 327.489 
1234 1 0.0482705 -0.00512445 0.00266 318.959 
3839 1 0.0498275 -0.00635211 0.00292208 325.524 
539 1 0.000999991 -0.00463755 0.00284091 307.588 
502 1 0.0028692 -0.00496099 0.00348449 310.172 
1090 1 0.00241806 -0.00326162 0.00253127 312.526 
666 1 0.00465322 -0.00440221 0.00271947 314.7 
102 1 0.00755571 -0.00396157 0.00273142 335.346 
263 1 0.00952789 -0.00357948 0.00294262 365.155 
659 1 0.0111076 -0.00492458 0.00267413 322.104 
61 1 0.0132155 -0.00474062 0.00244835 328.861 
701 1 0.014857 -0.00485586 0.003585 343.994 
968 1 0.0144952 -0.00320426 0.00249262 340.709 
949 1 0.0164875 -0.00336364 0.00242094 333.574 
815 1 0.0184075 -0.00482756 0.00266398 327.238 
941 1 0.0219151 -0.00493099 0.00262965 321.127 
793 1 0.0203805 -0.00364863 0.00260586 337.443 
371 1 0.0217992 -0.00348212 0.00400576 375.036 
437 1 0.0237219 -0.00436751 0.00327611 317.966 
232 1 0.0256883 -0.00374046 0.00360621 337.691 
1053 1 0.0274331 -0.0032043 0.00278871 321.282 
1113 1 0.0294168 -0.00367225 0.0024619 348.508 
239 1 0.0285386 -0.00436099 0.00412155 410.946 
125 1 0.0313661 -0.00411936 0.00247416 331.053 
503 1 0.0305202 -0.00320882 0.00406428 391.384 
685 1 0.0338027 -0.00315327 0.00216831 323.212 
1183 1 0.0329001 -0.00455259 0.00369441 328.643 
607 1 0.0355435 -0.00451931 0.00290681 337.149 
670 1 0.0344352 -0.0033252 0.00406679 399.701 
337 1 0.0372277 -0.00348272 0.00320522 346.411 
1129 1 0.0385362 -0.00458563 0.00217014 319.203 
731 1 0.0397943 -0.0039422 0.00358553 371.221 
571 1 0.0429846 -0.00447594 0.00270542 318.324 
971 1 0.0428698 -0.00304037 0.00409671 399.878 
708 1 0.0447234 -0.00389631 0.00371446 330.444 
886 1 0.0466457 -0.00466918 0.00373368 319.312 
1181 1 0.0478672 -0.0031672 0.00257964 341.458 
7 1 0.000999995 -0.00224926 0.00351349 321.546 
194 1 0.00444504 -0.00241389 0.00266259 335.141 
824 1 0.00663811 -0.002199 0.00250483 338.12 
850 1 0.00789364 -0.0024833 0.00403545 352.808 
520 1 0.00878403 -0.00181657 0.00236061 356.045 
1122 1 0.011365 -0.00295271 0.00246086 353.304 
1071 1 0.0110248 -0.00157098 0.0038662 415.944 
1326 1 0.0128951 -0.00189142 0.00319063 354.558 
592 1 0.0149515 -0.00128289 0.00280888 364.926 
251 1 0.0169801 -0.001426 0.00247444 339.097 
702 1 0.0161354 -0.00228746 0.00406953 330.576 
1149 1 0.0180125 -0.00280077 0.00358607 375.585 
379 1 0.0189674 -0.00158635 0.00231587 339.681 
1284 1 0.0210353 -0.00176092 0.00269408 364.193 
794 1 0.0227832 -0.00284188 0.00238658 337.746 
448 1 0.0225297 -0.0013417 0.0039554 403.395 
1114 1 0.0242126 -0.00239472 0.00371208 382.963 
1335 1 0.0270199 -0.00120829 0.00282432 391.779 
687 1 0.0291767 -0.00168212 0.00229324 358.04 
753 1 0.0287052 -0.00236798 0.00411184 423.615 
628 1 0.0312942 -0.00143576 0.00223057 325.826 
937 1 0.0323336 -0.00265285 0.00342984 369.261 
637 1 0.0355118 -0.00215918 0.00284971 355.33 
998 1 0.0373732 -0.001489 0.00314284 345.977 
128 1 0.0393168 -0.00208354 0.00264561 337.139 
871 1 0.0411969 -0.00260098 0.00308983 317.788 
992 1 0.0426257 -0.00120919 0.00294356 338.965 
587 1 0.0438385 -0.00269671 0.00238109 342.656 
710 1 0.0445866 -0.00189194 0.0040522 404.64 
512 1 0.0461727 -0.00207084 0.00270327 313.824 
21 1 0.0478069 -0.00170423 0.00394202 421.164 
1170 1 0.0495766 -0.00258666 0.00344025 363.215 
822 1 0.000999987 -0.000473589 0.00259319 317.446 
109 1 0.0024542 -0.000832872 0.00391839 354.819 
528 1 0.00578114 -0.000842966 0.00394346 419.729 
242 1 0.00411277 -0.000225061 0.00285187 335.098 
144 1 0.00763281 -0.000245222 0.00300108 365.925 
1192 1 0.00914761 -0.000927255 0.00411472 411.482 
419 1 0.00945075 0.000512878 0.0026542 373.283 
412 1 0.0112445 -0.000305026 0.0023172 321.523 
1076 1 0.0126516 8.42539e-06 0.00379379 403.548 
62 1 0.0149188 0.000712616 0.0026792 383.421 
296 1 0.0169126 0.000567618 0.00261911 378.452 
1125 1 0.0179476 -0.000535511 0.00398153 383.02 
229 1 0.0189022 0.000404401 0.0024965 368.043 
1121 1 0.0207436 0.000143193 0.00323189 383.416 
1269 1 0.0233602 0.000450973 0.00361969 421.774 
182 1 0.0248598 -0.000777839 0.00272881 325.199 
438 1 0.0259157 0.000919027 0.00280466 408.732 
1194 1 0.0286065 0.000232978 0.00237905 368.067 
896 1 0.0318096 -0.000830484 0.00406577 419.521 
1030 1 0.0305119 0.000242498 0.00298658 374.69 
334 1 0.033172 -0.000725086 0.00260031 310.952 
19 1 0.0356439 -0.00022773 0.00234772 370.156 
65 1 0.0377027 0.000305464 0.00232351 360.141 
1120 1 0.0390534 -0.000489579 0.00382456 395.542 
1079 1 0.0395763 0.00096548 0.00255594 362.709 
1268 1 0.0407291 -0.00066785 0.0026123 353.717 
267 1 0.0425149 0.000767667 0.00266122 356.39 
307 1 0.0436758 2.84904e-05 0.00411238 437.55 
640 1 0.0445885 -0.000664407 0.00247324 367.989 
1235 1 0.0459945 0.00043435 0.00337651 364.38 
559 1 0.0474154 -0.000541394 0.0023621 323.221 
70 1 0.0493083 -0.000516063 0.00336394 376.142 
777 1 0.000999995 0.00110825 0.00381703 322.014 
471 1 0.000999996 0.00219067 0.00213525 317.846 
1043 1 0.00259936 0.0010612 0.00261711 337.712 
1165 1 0.0043985 0.00192522 0.00248846 363.238 
1342 1 0.00615918 0.00122393 0.00312734 372.274 
948 1 0.00824989 0.00209418 0.00238418 347.846 
73 1 0.00954494 0.00198347 0.0040064 414.348 
505 1 0.0109079 0.00187772 0.00253671 332.591 
921 1 0.0128894 0.00162969 0.00264707 334.043 
698 1 0.0148031 0.00263621 0.00214408 372.075 
542 1 0.0161275 0.00214771 0.00356089 379.641 
202 1 0.0179548 0.00149021 0.00405531 443.84 
1312 1 0.0198177 0.00190183 0.00345535 418.644 
1100 1 0.0218928 0.00199069 0.0026682 391.03 
902 1 0.024654 0.0020511 0.00386609 434.395 
715 1 0.0275718 0.00203697 0.00271739 407.675 
209 1 0.0292263 0.00157551 0.00374179 425.377 
68 1 0.030945 0.00242399 0.00317064 378.543 
189 1 0.0323332 0.0010903 0.00262827 340.589 
122 1 0.0331342 0.00221269 0.00408336 383.695 
1112 1 0.0343195 0.0011875 0.00284081 350.432 
1259 1 0.0371473 0.00244187 0.00221728 388.473 
570 1 0.0366618 0.0011466 0.00380976 433.807 