ITEM: TIMESTEP
16160000
ITEM: NUMBER OF ATOMS
5000
ITEM: BOX BOUNDS mm mm mm
0 0.1
-0.015 0.015
0 0.3
ITEM: ATOMS id type x y z f_Temp[0] 
977 1 0.00102825 -0.014 0.000999993 300.003 
581 1 0.00280536 -0.013082 0.000999998 300 
980 1 0.00536401 -0.0139934 0.000999992 300.003 
1252 1 0.0073668 -0.0139976 0.000999998 300 
648 1 0.00943464 -0.014 0.000999991 300.012 
1049 1 0.0114353 -0.0139953 0.000999998 300 
585 1 0.0133901 -0.0135651 0.000999998 300 
453 1 0.0153494 -0.0139699 0.000999997 300 
812 1 0.0173493 -0.0139998 0.000999993 300.01 
1111 1 0.0195007 -0.0134438 0.000999984 300.012 
713 1 0.021422 -0.014 0.000999994 300.002 
1065 1 0.0234048 -0.014 0.00126756 300.001 
82 1 0.0265155 -0.0139931 0.000999994 300.004 
383 1 0.0285156 -0.014 0.000999992 300.004 
930 1 0.030521 -0.014 0.000999997 300.021 
936 1 0.0322405 -0.014 0.00202133 300.02 
1185 1 0.0365621 -0.014 0.000999997 300.006 
961 1 0.0387276 -0.014 0.00158109 300.014 
397 1 0.0415067 -0.014 0.000999998 300.003 
434 1 0.0453634 -0.0139995 0.000999989 300.002 
845 1 0.0473634 -0.013996 0.000999993 300.001 
69 1 0.0493634 -0.014 0.000999998 300 
775 1 0.00100002 -0.0113754 0.000999998 300 
100 1 0.0029795 -0.0110896 0.000999992 300.04 
914 1 0.00557519 -0.0112015 0.00100005 300.074 
80 1 0.00757517 -0.0111953 0.000999991 300.212 
451 1 0.00998402 -0.0120769 0.000999996 300.097 
796 1 0.00840292 -0.0126653 0.00207425 300.029 
693 1 0.0116631 -0.012314 0.00206038 300.118 
1317 1 0.0131863 -0.0115688 0.000999987 300.147 
915 1 0.0160944 -0.0121103 0.000999994 300.029 
410 1 0.0190455 -0.011496 0.000999996 300.029 
830 1 0.0224371 -0.0122702 0.000999998 300 
320 1 0.0247898 -0.0125822 0.000999992 300.008 
112 1 0.0274126 -0.0122056 0.000999996 300.02 
75 1 0.0305709 -0.0120006 0.000999993 300.102 
44 1 0.0325472 -0.012308 0.000999993 300.065 
903 1 0.0346614 -0.0124727 0.000999987 300.09 
501 1 0.0399655 -0.0125406 0.000999994 300.026 
606 1 0.0381813 -0.0121244 0.00200969 300.065 
895 1 0.0424953 -0.0112468 0.000999991 300.04 
98 1 0.0440827 -0.0124633 0.000999998 300.009 
591 1 0.0463606 -0.0121906 0.000999998 300 
260 1 0.0483399 -0.0113954 0.000999988 300.048 
341 1 0.00236835 -0.00912792 0.000999989 300.145 
781 1 0.00434315 -0.00962605 0.00099999 300.229 
163 1 0.00630249 -0.00922482 0.000999992 300.653 
180 1 0.00969329 -0.0104144 0.00207298 300.59 
657 1 0.0113778 -0.0106424 0.000999994 300.081 
479 1 0.0130888 -0.00957115 0.00099999 300.318 
1334 1 0.0156328 -0.00933789 0.000999989 300.296 
236 1 0.0173021 -0.0105161 0.00100003 300.148 
463 1 0.0189969 -0.0094543 0.000999987 300.453 
1058 1 0.020961 -0.0109208 0.000999997 300.049 
214 1 0.021988 -0.00920459 0.000999991 300.472 
48 1 0.0236592 -0.010687 0.000999996 300.054 
1001 1 0.0256579 -0.0107646 0.000999989 300.07 
157 1 0.0275721 -0.0101849 0.00099999 300.401 
154 1 0.0295703 -0.010269 0.000999998 300.484 
849 1 0.03169 -0.0101268 0.000999998 300.032 
986 1 0.0337356 -0.0106994 0.000999992 300.385 
352 1 0.0353603 -0.00937906 0.000999998 300.326 
391 1 0.037078 -0.0107965 0.00099999 300.206 
828 1 0.0380495 -0.00904828 0.000999991 300.534 
1302 1 0.0391669 -0.010707 0.000999989 300.112 
1153 1 0.0410033 -0.00991491 0.000999992 300.153 
1029 1 0.0435086 -0.00935559 0.000999995 300.154 
734 1 0.0450013 -0.0106867 0.000999997 300.032 
168 1 0.0467898 -0.0104128 0.001852 300.085 
673 1 0.0479253 -0.00900397 0.000999991 300.219 
230 1 0.00208414 -0.00710001 0.000999993 300.827 
962 1 0.00400567 -0.00765473 0.000999989 301.189 
829 1 0.00807393 -0.0082964 0.000999989 302.341 
409 1 0.0100683 -0.00814704 0.00100015 300.898 
524 1 0.0120481 -0.00786324 0.000999994 301.058 
1221 1 0.0140493 -0.00781586 0.000999998 300.014 
1092 1 0.0173393 -0.0086903 0.00181755 300.934 
461 1 0.016624 -0.00701102 0.000999992 300.783 
1062 1 0.0197951 -0.00762048 0.000999986 302.337 
790 1 0.0215614 -0.00748521 0.00192831 303.066 
200 1 0.0233297 -0.00737885 0.000999993 301.528 
602 1 0.0247258 -0.00899514 0.000999997 300.139 
546 1 0.0254076 -0.0074302 0.00204216 300.625 
1240 1 0.0269157 -0.00822994 0.000999998 300.079 
247 1 0.0292594 -0.00829331 0.00099999 301.682 
973 1 0.0315646 -0.00811889 0.00099999 300.954 
1319 1 0.0334732 -0.00871669 0.000999992 300.701 
947 1 0.0365133 -0.00779137 0.00138712 300.45 
238 1 0.0398083 -0.00744564 0.000999998 300.782 
162 1 0.0418494 -0.00748754 0.000999997 300.093 
367 1 0.0444121 -0.00769988 0.0016651 300.319 
1274 1 0.0459344 -0.00881346 0.000999986 300.266 
1074 1 0.0498508 -0.00837724 0.000999998 300 
28 1 0.0010002 -0.00541922 0.000999994 301.005 
956 1 0.00299484 -0.00525826 0.000999998 300 
134 1 0.00500411 -0.00536152 0.000999994 302.074 
825 1 0.00684751 -0.00671657 0.000999995 302.175 
976 1 0.00894151 -0.00649438 0.000999994 305.712 
169 1 0.0109715 -0.00601028 0.000999993 303.245 
556 1 0.0129962 -0.00610228 0.000999995 303.993 
421 1 0.0149261 -0.00609382 0.001525 302.501 
1217 1 0.0184323 -0.00615665 0.000999998 301.879 
1325 1 0.0210599 -0.00573598 0.000999998 300 
496 1 0.0230199 -0.00528279 0.000999996 303.26 
639 1 0.024956 -0.005784 0.00099999 303.033 
1151 1 0.0269057 -0.0062297 0.000999984 304.513 
443 1 0.0289827 -0.00546013 0.000999998 300 
1231 1 0.0310307 -0.00545223 0.000999998 300 
146 1 0.0303193 -0.00698151 0.00207498 304.203 
1290 1 0.0330366 -0.00676492 0.000999997 301.421 
1075 1 0.0353259 -0.00621403 0.000999995 301.313 
618 1 0.038025 -0.00654034 0.000999998 300.133 
83 1 0.0399098 -0.00544822 0.000999985 303.61 
974 1 0.0424605 -0.00544572 0.000999991 302.378 
1289 1 0.0449382 -0.00588859 0.000999992 301.348 
772 1 0.0466402 -0.00609637 0.0020296 302.032 
530 1 0.0482999 -0.00652692 0.000999994 300.531 
283 1 0.00371077 -0.00338747 0.000999998 300 
750 1 0.00569468 -0.00311861 0.000999998 300 
234 1 0.00689912 -0.00471724 0.000999994 305.197 
1025 1 0.00808654 -0.00310775 0.000999998 300 
139 1 0.00957742 -0.00451695 0.000999998 300 
791 1 0.0119528 -0.0041857 0.000999985 312.588 
402 1 0.0153626 -0.004214 0.000999994 306.023 
1087 1 0.017357 -0.00447035 0.000999991 305.795 
519 1 0.0193899 -0.00431182 0.000999993 307.242 
275 1 0.0216938 -0.00378558 0.000999994 304.348 
142 1 0.0249492 -0.00393316 0.00175782 306.678 
90 1 0.0267754 -0.00423396 0.000999996 304.009 
492 1 0.032699 -0.00434362 0.000999993 305.364 
749 1 0.0350091 -0.00423928 0.000999994 305.827 
1187 1 0.0369358 -0.00484893 0.000999997 301.579 
175 1 0.0402006 -0.00358298 0.00166048 307.916 
1050 1 0.0420853 -0.00347573 0.000999995 302.486 
846 1 0.0439728 -0.00413701 0.000999988 304.805 
424 1 0.0456873 -0.00431841 0.00201368 303.219 
1243 1 0.0474114 -0.00430605 0.000999998 304.537 
3721 1 0.0493439 -0.00482097 0.000999988 302.422 
77 1 0.0010637 -0.00207177 0.000999998 300 
37 1 0.00269634 -0.00135299 0.00200246 314.179 
1108 1 0.00442621 -0.00130241 0.000999983 314.878 
385 1 0.0074663 -0.0011745 0.000999988 319.847 
89 1 0.0100509 -0.0025554 0.000999998 300 
318 1 0.0118586 -0.00167902 0.000999998 306.392 
32 1 0.0138228 -0.00205531 0.000999998 303.86 
964 1 0.0158217 -0.00212183 0.000999998 303.244 
1180 1 0.0177825 -0.00251614 0.000999993 307.134 
885 1 0.0201852 -0.00247261 0.000999997 308.215 
264 1 0.0220832 -0.00158202 0.000999986 313.866 
258 1 0.0241116 -0.00228266 0.001 311.448 
291 1 0.0258098 -0.00110755 0.000999998 304.191 
1052 1 0.0282802 -0.00291658 0.000999992 312.844 
486 1 0.0304223 -0.00274938 0.000999993 307.729 
401 1 0.0328101 -0.00186878 0.000999996 304.862 
91 1 0.0348112 -0.00186302 0.00099999 309.905 
1248 1 0.0364864 -0.00291987 0.00127711 304.101 
1196 1 0.0384654 -0.00283657 0.000999995 304.985 
351 1 0.0409167 -0.00183629 0.000999995 307.835 
1003 1 0.0429072 -0.00158977 0.000999997 304.51 
545 1 0.0452833 -0.00262575 0.000999997 306.38 
31 1 0.0472197 -0.00212533 0.000999991 306.528 
1027 1 0.0491105 -0.00283465 0.000999996 301.754 
620 1 0.00150677 0.000624044 0.000999984 309.867 
817 1 0.00371001 0.000569568 0.000999998 300 
127 1 0.00591125 -0.000406584 0.00199601 340.401 
306 1 0.00756563 0.000823028 0.000999994 311.337 
167 1 0.00960301 -0.000600847 0.000999992 321.991 
721 1 0.0132144 -0.000384327 0.00191523 326.457 
33 1 0.015786 -0.00011164 0.000999998 300 
522 1 0.0178029 -0.000348458 0.000999998 300 
1330 1 0.0201727 -0.000472075 0.000999998 300 
624 1 0.0239822 -0.000286865 0.000999988 319.284 
799 1 0.0222849 0.000162791 0.00195755 337.007 
644 1 0.0278053 -0.000973797 0.000999988 322.19 
181 1 0.0267603 0.000746294 0.000999994 325.319 
289 1 0.0300684 -0.000444246 0.000999989 314.434 
899 1 0.0320249 -2.93762e-05 0.000999997 305.75 
184 1 0.0341146 1.69023e-05 0.000999998 300.698 
1191 1 0.0369445 -0.000988203 0.000999998 303.801 
625 1 0.0395827 -0.000291109 0.000999998 306.727 
250 1 0.0417007 7.81931e-06 0.000999996 313.026 
1247 1 0.0440455 0.000574363 0.000999991 314.383 
518 1 0.045939 -0.000588995 0.000999992 321.212 
198 1 0.0476838 0.000898613 0.000999998 300 
527 1 0.0488465 -0.000852146 0.000999995 306.958 
904 1 0.0494914 0.00083641 0.00185608 322.934 
305 1 0.00264916 0.00226565 0.00100002 316.208 
408 1 0.00557638 0.00129512 0.000999993 327.315 
1037 1 0.00643218 0.00282586 0.00196146 350.464 
1054 1 0.00968458 0.00225442 0.000999996 311.229 
310 1 0.0118959 0.00105165 0.000999998 302.102 
364 1 0.0129022 0.00293552 0.000999998 305.428 
392 1 0.0139525 0.00123354 0.000999991 318.732 
430 1 0.0169059 0.00174167 0.000999993 323.122 
723 1 0.0189961 0.00172788 0.000999992 315.704 
279 1 0.0209923 0.00135248 0.000999998 300 
1099 1 0.0248586 0.00295496 0.000999993 327.326 
1044 1 0.0241312 0.00141222 0.00204443 354.003 
1226 1 0.0268526 0.0027672 0.000999989 338.496 
474 1 0.0285332 0.00167963 0.000999992 319.977 
1175 1 0.0304799 0.00146998 0.0014079 322.566 
280 1 0.033244 0.00181831 0.000999998 304.162 
476 1 0.0350733 0.0024588 0.0014934 319.082 
735 1 0.0363974 0.00104339 0.000999985 329.075 
311 1 0.0384834 0.00158561 0.000999987 330.274 
562 1 0.0405308 0.00178272 0.000999989 327.623 
197 1 0.0425283 0.0018813 0.000999995 317.237 
615 1 0.0443907 0.00261031 0.000999986 328.789 
568 1 0.0458138 0.00132471 0.00156747 346.066 
1197 1 0.0497082 0.00263088 0.000999994 326.399 
366 1 0.00100063 0.00383724 0.000999997 303.986 
920 1 0.0043839 0.00326097 0.00099999 322.449 
1036 1 0.00644525 0.00457953 0.000999989 323.765 
314 1 0.00844744 0.00420482 0.000999998 300 
1224 1 0.0104826 0.00408961 0.000999992 325.024 
1124 1 0.0123036 0.0049164 0.000999992 332.272 
1286 1 0.0152051 0.00422662 0.000999983 334.594 
972 1 0.0186014 0.00369399 0.000999996 314.589 
493 1 0.0202753 0.0030119 0.00185588 351.129 
939 1 0.02075 0.00475605 0.000999988 339.27 
923 1 0.0220823 0.00307749 0.000999993 325.981 
241 1 0.0235323 0.00445514 0.00099999 337.265 
322 1 0.0254857 0.00479463 0.00147149 341.267 
485 1 0.0274261 0.00468323 0.000999995 329.416 
814 1 0.0294225 0.00456453 0.000999989 333.419 
1229 1 0.031651 0.00303909 0.000999991 322.859 
879 1 0.032931 0.00472592 0.000999998 300 
1019 1 0.0354244 0.00436559 0.000999992 329.777 
26 1 0.0374497 0.00408385 0.000999998 300 
946 1 0.0393304 0.00340355 0.000999998 306.744 
1314 1 0.041438 0.0035651 0.000999997 320.584 
300 1 0.0429164 0.00497018 0.000999991 330.189 
757 1 0.0450352 0.00455741 0.000999996 322.664 
121 1 0.0464429 0.00313648 0.000999998 300 
2899 1 0.0491937 0.0045982 0.000999981 338.444 
235 1 0.0481355 0.00327053 0.00205706 357.237 
852 1 0.00147344 0.00578054 0.000999994 304.62 
143 1 0.00359123 0.00509717 0.000999997 319.018 
712 1 0.00611097 0.00655139 0.000999995 323.478 
857 1 0.00765647 0.00583318 0.0020467 340.311 
156 1 0.0101029 0.00606725 0.000999991 330.164 
733 1 0.0125017 0.00690655 0.000999988 338.078 
761 1 0.0142905 0.00601062 0.000999998 300 
1306 1 0.0170989 0.00501409 0.000999991 326.165 
1285 1 0.0165014 0.0069667 0.000999998 304.001 
237 1 0.0189814 0.0056897 0.000999997 320.665 
621 1 0.0222928 0.00602882 0.00099999 332.243 
1134 1 0.0242725 0.00631312 0.000999989 333.959 
1154 1 0.028986 0.0067722 0.000999991 335.741 
332 1 0.0310772 0.00569306 0.000999998 300 
404 1 0.0326452 0.00696578 0.000999994 325.195 
1299 1 0.0344553 0.0061151 0.000999994 323.628 
1088 1 0.0366774 0.00592881 0.000999988 352.907 
54 1 0.0390828 0.00538836 0.000999994 326.368 
176 1 0.0410339 0.00582837 0.000999992 325.394 
544 1 0.045518 0.00651279 0.000999998 300 
469 1 0.0472716 0.00515104 0.000999995 318.007 
14 1 0.048698 0.00655308 0.000999996 329.716 
741 1 0.000999996 0.00772368 0.00100003 309.438 
187 1 0.00278473 0.00862649 0.000999991 318.79 
540 1 0.00401709 0.00705129 0.000999987 320.429 
193 1 0.00477582 0.00895976 0.000999998 300 
253 1 0.0068207 0.00842122 0.000999996 321.896 
959 1 0.00850773 0.00730957 0.000999992 328.232 
328 1 0.0114072 0.00885244 0.000999998 300 
718 1 0.0132987 0.00844915 0.0019926 339.021 
978 1 0.0151909 0.00848408 0.000999991 331.06 
488 1 0.0171399 0.00893312 0.000999991 324.44 
847 1 0.0186891 0.00766823 0.000999992 325.091 
473 1 0.0206943 0.0074014 0.000999998 300 
854 1 0.0226507 0.00799697 0.000999991 338.739 
207 1 0.0263751 0.00739622 0.000999998 300 
513 1 0.0293352 0.00896057 0.00151575 322.415 
651 1 0.0307733 0.00766986 0.000999989 326.408 
1298 1 0.0326488 0.00875108 0.00190147 321.74 
1244 1 0.0353883 0.00770327 0.00177925 353.37 
611 1 0.0372176 0.00791835 0.000999986 332.422 
730 1 0.0393583 0.00754873 0.000999997 322.02 
835 1 0.0417267 0.00744182 0.00195747 364.278 
110 1 0.0436805 0.00766014 0.000999996 324.19 
428 1 0.0469194 0.00795518 0.000999997 305.514 
174 1 0.0497579 0.00825521 0.000999987 339.507 
205 1 0.00100021 0.00991911 0.000999985 310.47 
177 1 0.00272024 0.0104073 0.001908 319.677 
674 1 0.00638342 0.0103728 0.000999989 322.888 
79 1 0.00942032 0.00908922 0.000999998 329.169 
1320 1 0.0104938 0.0103921 0.00207241 341.134 
779 1 0.012119 0.0108494 0.00100017 325.492 
292 1 0.0139551 0.0100566 0.000999991 326.115 
11 1 0.015904 0.0105056 0.00099999 322.078 
50 1 0.0188973 0.00950435 0.00176508 315.829 
1042 1 0.0207436 0.00942882 0.000999998 304.004 
694 1 0.0226224 0.0101149 0.000999989 327.496 
147 1 0.0240051 0.00907428 0.00200252 353.683 
983 1 0.0256274 0.00967679 0.000999989 324.521 
798 1 0.0278229 0.0101635 0.000999996 309.465 
966 1 0.0311269 0.00968438 0.000999995 312.285 
1186 1 0.033815 0.0102344 0.000999995 317.797 
1091 1 0.035782 0.00950263 0.000999993 330.245 
93 1 0.0382867 0.00960858 0.000999998 325.578 
1160 1 0.0399631 0.0106994 0.000999988 314.211 
575 1 0.0411762 0.00910919 0.00099999 327.511 
985 1 0.04312 0.00957997 0.000999996 314.409 
359 1 0.0453271 0.00941899 0.000999995 320.901 
969 1 0.0472618 0.00992566 0.000999998 309.771 
78 1 0.0492059 0.0103951 0.000999992 311.621 
363 1 0.000999994 0.0125472 0.000999995 302.899 
811 1 0.00296408 0.0122886 0.00127469 309.719 
743 1 0.00449491 0.0110312 0.000999993 310.92 
1251 1 0.00600936 0.0123375 0.000999995 309.29 
72 1 0.009055 0.0112752 0.000999994 317.582 
1313 1 0.0110293 0.0125265 0.00099999 314.313 
654 1 0.0139151 0.0120596 0.000999989 319.287 
271 1 0.0178306 0.011047 0.000999998 300 
15 1 0.0191506 0.0123316 0.00178965 313.18 
215 1 0.0208644 0.0116686 0.00099999 314.401 
420 1 0.0226323 0.0118976 0.00190669 317.895 
449 1 0.0244554 0.012149 0.000999998 305.722 
39 1 0.0263672 0.0115349 0.000999992 311.51 
188 1 0.0295985 0.0111181 0.000999991 317.293 
425 1 0.028129 0.0124814 0.000999992 305.612 
1095 1 0.0312193 0.01229 0.000999998 300.002 
1227 1 0.033219 0.0122468 0.000999995 309.995 
119 1 0.0353448 0.0122909 0.000999998 300 
650 1 0.0369685 0.0111127 0.000999989 320.221 
1138 1 0.0386186 0.0122428 0.000999992 314.613 
979 1 0.0405124 0.0124274 0.00184388 323.312 
316 1 0.0424183 0.0117034 0.000999998 305.489 
1297 1 0.0443447 0.0111611 0.00099999 318.803 
1206 1 0.046545 0.0118446 0.000999993 315.81 
380 1 0.0484365 0.0121497 0.00157368 308.39 
347 1 0.00209295 0.014 0.00183359 302.905 
309 1 0.00396196 0.014 0.000999998 304.011 
1130 1 0.00566062 0.014 0.00205571 310.191 
807 1 0.00735927 0.014 0.000999991 306.164 
114 1 0.00931258 0.0135525 0.000999993 306.922 
240 1 0.0123816 0.014 0.000999997 305.61 
672 1 0.0144052 0.014 0.000999998 302.924 
729 1 0.0161846 0.014 0.00191321 311.015 
758 1 0.0179409 0.0137147 0.000999996 306.209 
1038 1 0.0199206 0.014 0.000999993 305.114 
81 1 0.0217812 0.0139926 0.00173331 309.351 
676 1 0.0236419 0.0139761 0.000999994 304.803 
534 1 0.0264784 0.0137748 0.000999998 300 
526 1 0.0299137 0.014 0.000999997 301.584 
101 1 0.0322566 0.014 0.000999994 305.337 
1304 1 0.0342566 0.014 0.00099999 307.501 
1171 1 0.0370725 0.0139076 0.000999998 300 
442 1 0.0396097 0.014 0.000999989 311.506 
348 1 0.0423202 0.0137122 0.000999998 300 
626 1 0.0443208 0.014 0.000999994 305.028 
935 1 0.0466537 0.0139466 0.000999998 300 
766 1 0.0489339 0.014 0.000999995 305.269 
728 1 0.00392052 -0.014 0.00238429 300.009 
1249 1 0.00256444 -0.0132265 0.00363435 300.045 
929 1 0.00450257 -0.0131416 0.00412055 300.079 
1137 1 0.00634469 -0.014 0.00274303 300.009 
1097 1 0.0078871 -0.0133954 0.0038635 300.049 
598 1 0.0095839 -0.014 0.0029944 300.021 
1056 1 0.0115791 -0.014 0.0031329 300.028 
747 1 0.0135702 -0.014 0.00294461 300.006 
1337 1 0.0162623 -0.0135725 0.00273454 300.004 
789 1 0.0184969 -0.014 0.00263796 300.051 
894 1 0.0203583 -0.014 0.00336963 300.019 
507 1 0.0220847 -0.0132262 0.00272104 300.011 
170 1 0.0250702 -0.014 0.00238244 300.005 
993 1 0.0240141 -0.0139722 0.00408059 300.033 
1048 1 0.0275175 -0.0134232 0.00263438 300.015 
1267 1 0.0262053 -0.014 0.00402915 300.002 
43 1 0.0295 -0.014 0.00274091 300.015 
1169 1 0.0312288 -0.014 0.00374657 300.045 
1008 1 0.0331407 -0.0134146 0.0037886 300.016 
1168 1 0.0342309 -0.014 0.00221734 300.018 
288 1 0.0350354 -0.014 0.00404837 300.016 
158 1 0.0375146 -0.014 0.00317125 300.006 
47 1 0.0406544 -0.0133617 0.00269294 300.016 
274 1 0.0425983 -0.014 0.00386091 300.002 
652 1 0.0441287 -0.014 0.00257328 300.002 
689 1 0.0463276 -0.014 0.00275222 300.003 
1184 1 0.0483371 -0.014 0.00274697 300.003 
1026 1 0.000999991 -0.0126891 0.00251021 300.019 
261 1 0.000999995 -0.011326 0.00397369 300.101 
1343 1 0.00301409 -0.0113076 0.00397475 300.211 
87 1 0.00423913 -0.0120312 0.0022356 300.017 
355 1 0.00504244 -0.0112267 0.00391614 300.367 
1208 1 0.00656471 -0.0120234 0.00253146 300.017 
22 1 0.00843274 -0.011079 0.00371936 300.42 
378 1 0.0101037 -0.0120919 0.00329275 300.09 
1220 1 0.0128444 -0.012285 0.00367402 300.084 
4 1 0.0145348 -0.0124065 0.00221646 300.028 
336 1 0.015519 -0.0118383 0.00386221 300.027 
622 1 0.0176585 -0.0122282 0.00224094 300.014 
1077 1 0.0174136 -0.0112732 0.00416425 300.098 
736 1 0.0189909 -0.012447 0.00379728 300.273 
681 1 0.0203697 -0.0122626 0.00236006 300.008 
859 1 0.022665 -0.0115618 0.00410205 300.114 
806 1 0.0239103 -0.0124121 0.00278814 300.047 
1152 1 0.0260548 -0.0120702 0.00246214 300.045 
999 1 0.0279366 -0.0119296 0.00389669 300.053 
1316 1 0.0289735 -0.011821 0.0021899 300.113 
797 1 0.029953 -0.0124734 0.00395094 300.107 
1264 1 0.0315301 -0.0122716 0.00273395 300.043 
20 1 0.0336445 -0.0118753 0.00261523 300.219 
1336 1 0.0350723 -0.0118548 0.00401562 300.266 
1126 1 0.0354465 -0.0110244 0.00213404 300.419 
233 1 0.0359508 -0.0129117 0.00256269 300.041 
450 1 0.0369507 -0.0113847 0.00340195 300.106 
160 1 0.0392319 -0.0123737 0.00369314 300.076 
724 1 0.0409925 -0.0114286 0.00230715 300.085 
876 1 0.0419024 -0.0120667 0.00396995 300.033 
872 1 0.0425493 -0.0128203 0.00223337 300.007 
704 1 0.0449215 -0.0120423 0.00276611 300.011 
945 1 0.0469145 -0.0120959 0.00292509 300.02 
221 1 0.0489219 -0.0120878 0.00278378 300.02 
1245 1 0.000999993 -0.00928449 0.00395345 300.601 
744 1 0.00199872 -0.0103191 0.00256345 300.197 
635 1 0.00390569 -0.00984746 0.00293895 300.524 
136 1 0.00590224 -0.00974057 0.00289044 301.197 
418 1 0.00782929 -0.00974667 0.00235529 301.077 
1057 1 0.0112144 -0.00913699 0.00230648 300.512 
259 1 0.0102857 -0.010154 0.00396539 300.681 
1318 1 0.0125372 -0.0106075 0.00262928 300.694 
725 1 0.0121185 -0.00937428 0.00414712 302.929 
1205 1 0.0144017 -0.00990101 0.00247217 300.732 
422 1 0.0163222 -0.0103914 0.00273907 300.168 
924 1 0.0183927 -0.0103733 0.00267041 300.426 
395 1 0.0200087 -0.0107212 0.00379621 300.233 
1195 1 0.0205045 -0.00947314 0.00231414 300.174 
500 1 0.0225748 -0.0102262 0.0026161 300.28 
213 1 0.0246572 -0.0105577 0.00272838 300.136 
909 1 0.0263344 -0.0095128 0.00242 300.718 
740 1 0.0265318 -0.0105259 0.00413308 300.293 
521 1 0.0284821 -0.00929895 0.00254496 301.645 
997 1 0.0297075 -0.0105331 0.00353251 300.648 
445 1 0.0304806 -0.00911342 0.00235493 301.136 
1261 1 0.0322714 -0.0104207 0.00289093 300.266 
529 1 0.0340991 -0.00964259 0.00265859 302.059 
277 1 0.0355513 -0.00991304 0.00402491 301.807 
124 1 0.0367214 -0.00947922 0.002462 300.929 
960 1 0.0385169 -0.0102744 0.00284128 300.207 
510 1 0.0401572 -0.0106169 0.00393302 300.495 
533 1 0.0434256 -0.0107171 0.00268929 300.117 
552 1 0.044975 -0.00945352 0.0026339 300.576 
697 1 0.0458235 -0.0106606 0.00398403 300.206 
440 1 0.0475928 -0.00981798 0.00358448 300.334 
1021 1 0.0490805 -0.0100354 0.00226562 300.303 
95 1 0.0495155 -0.0105984 0.00413479 300.356 
564 1 0.00099999 -0.00828587 0.00219099 300.634 
1178 1 0.00294431 -0.00812116 0.0026297 300.32 
1005 1 0.00493772 -0.00799531 0.00273643 304.415 
284 1 0.00642498 -0.00807971 0.00407095 306.285 
27 1 0.00807073 -0.00718883 0.00266529 310.517 
344 1 0.00938651 -0.00866083 0.00298457 303.112 
455 1 0.0105623 -0.00708018 0.00263943 307.836 
636 1 0.0124312 -0.00770239 0.00298568 302.348 
1006 1 0.0139625 -0.00858986 0.00391714 303.234 
457 1 0.0154895 -0.00790228 0.00238508 300.134 
719 1 0.0174886 -0.00898444 0.00379015 302.021 
970 1 0.0173748 -0.00710733 0.00303941 302.031 
179 1 0.019032 -0.00819104 0.00275844 302.185 
138 1 0.0218439 -0.00861733 0.00355266 301.33 
818 1 0.0203462 -0.00738063 0.00402971 306.821 
246 1 0.0236322 -0.00852863 0.00260825 300.588 
52 1 0.0251761 -0.00874884 0.00386041 302.844 
788 1 0.0270982 -0.00816529 0.00368523 301.815 
988 1 0.028116 -0.00722336 0.00224411 305.517 
490 1 0.0294674 -0.00792801 0.00361716 306.176 
84 1 0.031579 -0.00882185 0.0040007 303.619 
574 1 0.0326897 -0.00787248 0.00263506 301.868 
1270 1 0.0346324 -0.00763772 0.00222151 301.141 
890 1 0.0361877 -0.00783246 0.00346367 303.289 
51 1 0.0380266 -0.00798128 0.00269142 302.328 
631 1 0.0399048 -0.00892272 0.00234495 300.233 
96 1 0.0393912 -0.00787195 0.00414942 303.772 
511 1 0.0410111 -0.00732224 0.00280826 300.652 
466 1 0.041122 -0.00887299 0.00410041 302.302 
1303 1 0.0421003 -0.00893786 0.00235721 300.742 
958 1 0.0436162 -0.00824038 0.00345969 302.14 
801 1 0.0466159 -0.00823817 0.00279014 300.994 
12 1 0.0485517 -0.00783185 0.00249456 301.197 
1322 1 0.00166231 -0.00652449 0.00286836 302.882 
1341 1 0.00396419 -0.00627271 0.00244508 302.635 
558 1 0.00510905 -0.00651309 0.00406821 315.705 
1255 1 0.00617585 -0.0056989 0.0025853 307.246 
56 1 0.00920399 -0.00554256 0.00273928 320.695 
1328 1 0.0124008 -0.00589791 0.00386145 324.511 
981 1 0.0141383 -0.00669754 0.00326137 303.236 
63 1 0.016488 -0.00538171 0.00255375 307.666 
942 1 0.0197866 -0.00626282 0.00246853 309.521 
1115 1 0.0187325 -0.00616465 0.0041654 325.918 
394 1 0.0204476 -0.00512481 0.00397452 316.157 
433 1 0.0221624 -0.00664013 0.00363846 312.154 
1004 1 0.0238057 -0.00623755 0.0025719 305.439 
957 1 0.0256907 -0.00562412 0.0028533 304.268 
436 1 0.0276169 -0.00518118 0.0025475 318.246 
769 1 0.0283152 -0.00634638 0.0040305 320.671 
141 1 0.0300155 -0.00540323 0.00326521 314.322 
59 1 0.0319484 -0.00601689 0.00271977 306.682 
104 1 0.0339034 -0.00541545 0.00219479 306.772 
489 1 0.0353605 -0.00612222 0.00408883 311.493 
1166 1 0.0366481 -0.00613693 0.00250276 302.509 
58 1 0.0378524 -0.00653306 0.00405974 306.985 
593 1 0.0392466 -0.00639765 0.00263055 303.246 
897 1 0.041185 -0.00533196 0.00253628 309.414 
1 1 0.0428685 -0.00661072 0.0025736 301.034 
759 1 0.0446992 -0.00576291 0.00298167 303.228 
396 1 0.0462771 -0.0066257 0.00392378 303.924 
1234 1 0.0482705 -0.00512445 0.00266 306.269 
3839 1 0.0498275 -0.00635211 0.00292208 305.252 
539 1 0.000999991 -0.00463755 0.00284091 303.825 
502 1 0.0028692 -0.00496099 0.00348449 303.649 
1090 1 0.00241806 -0.00326162 0.00253127 305.596 
666 1 0.00465322 -0.00440221 0.00271947 305.585 
102 1 0.00755571 -0.00396157 0.00273142 318.777 
263 1 0.00952789 -0.00357948 0.00294262 348.06 
659 1 0.0111076 -0.00492458 0.00267413 310.031 
61 1 0.0132155 -0.00474062 0.00244835 314.741 
701 1 0.014857 -0.00485586 0.003585 323.06 
968 1 0.0144952 -0.00320426 0.00249262 323.724 
949 1 0.0164875 -0.00336364 0.00242094 318.105 
815 1 0.0184075 -0.00482756 0.00266398 312.453 
941 1 0.0219151 -0.00493099 0.00262965 308.901 
793 1 0.0203805 -0.00364863 0.00260586 321.722 
371 1 0.0217992 -0.00348212 0.00400576 343.142 
437 1 0.0237219 -0.00436751 0.00327611 306.671 
232 1 0.0256883 -0.00374046 0.00360621 318.039 
1053 1 0.0274331 -0.0032043 0.00278871 307.829 
1113 1 0.0294168 -0.00367225 0.0024619 325.155 
239 1 0.0285386 -0.00436099 0.00412155 356.403 
125 1 0.0313661 -0.00411936 0.00247416 315.423 
503 1 0.0305202 -0.00320882 0.00406428 358.571 
685 1 0.0338027 -0.00315327 0.00216831 311.846 
1183 1 0.0329001 -0.00455259 0.00369441 313.517 
607 1 0.0355435 -0.00451931 0.00290681 319.363 
670 1 0.0344352 -0.0033252 0.00406679 365.489 
337 1 0.0372277 -0.00348272 0.00320522 325.186 
1129 1 0.0385362 -0.00458563 0.00217014 307.95 
731 1 0.0397943 -0.0039422 0.00358553 321.616 
571 1 0.0429846 -0.00447594 0.00270542 305.729 
971 1 0.0428698 -0.00304037 0.00409671 354.856 
708 1 0.0447234 -0.00389631 0.00371446 308.897 
886 1 0.0466457 -0.00466918 0.00373368 305.231 
1181 1 0.0478672 -0.0031672 0.00257964 322.71 
7 1 0.000999995 -0.00224926 0.00351349 313.697 
194 1 0.00444504 -0.00241389 0.00266259 319.275 
824 1 0.00663811 -0.002199 0.00250483 320.811 
850 1 0.00789364 -0.0024833 0.00403545 332.859 
520 1 0.00878403 -0.00181657 0.00236061 340.011 
1122 1 0.011365 -0.00295271 0.00246086 335.696 
1071 1 0.0110248 -0.00157098 0.0038662 394.403 
1326 1 0.0128951 -0.00189142 0.00319063 331.45 
592 1 0.0149515 -0.00128289 0.00280888 342.155 
251 1 0.0169801 -0.001426 0.00247444 322.226 
702 1 0.0161354 -0.00228746 0.00406953 314.21 
1149 1 0.0180125 -0.00280077 0.00358607 353.365 
379 1 0.0189674 -0.00158635 0.00231587 323.96 
1284 1 0.0210353 -0.00176092 0.00269408 339.676 
794 1 0.0227832 -0.00284188 0.00238658 319.623 
448 1 0.0225297 -0.0013417 0.0039554 370.974 
1114 1 0.0242126 -0.00239472 0.00371208 352.863 
1335 1 0.0270199 -0.00120829 0.00282432 363.697 
687 1 0.0291767 -0.00168212 0.00229324 337.937 
753 1 0.0287052 -0.00236798 0.00411184 393.705 
628 1 0.0312942 -0.00143576 0.00223057 312.787 
937 1 0.0323336 -0.00265285 0.00342984 345.976 
637 1 0.0355118 -0.00215918 0.00284971 334.016 
998 1 0.0373732 -0.001489 0.00314284 324.209 
128 1 0.0393168 -0.00208354 0.00264561 319.145 
871 1 0.0411969 -0.00260098 0.00308983 306.004 
992 1 0.0426257 -0.00120919 0.00294356 319.188 
587 1 0.0438385 -0.00269671 0.00238109 321.02 
710 1 0.0445866 -0.00189194 0.0040522 359.777 
512 1 0.0461727 -0.00207084 0.00270327 305.124 
21 1 0.0478069 -0.00170423 0.00394202 387.886 
1170 1 0.0495766 -0.00258666 0.00344025 325.532 
822 1 0.000999987 -0.000473589 0.00259319 310.579 
109 1 0.0024542 -0.000832872 0.00391839 339.749 
528 1 0.00578114 -0.000842966 0.00394346 412.961 
242 1 0.00411277 -0.000225061 0.00285187 320.808 
144 1 0.00763281 -0.000245222 0.00300108 345.547 
1192 1 0.00914761 -0.000927255 0.00411472 394.996 
419 1 0.00945075 0.000512878 0.0026542 353.374 
412 1 0.0112445 -0.000305026 0.0023172 311.959 
1076 1 0.0126516 8.42535e-06 0.00379379 370.193 
62 1 0.0149188 0.000712616 0.0026792 359.866 
296 1 0.0169126 0.000567618 0.00261911 357.984 
1125 1 0.0179476 -0.000535511 0.00398153 353.407 
229 1 0.0189022 0.000404401 0.0024965 346.805 
1121 1 0.0207436 0.000143193 0.00323189 359.969 
1269 1 0.0233602 0.000450973 0.00361969 394.805 
182 1 0.0248598 -0.000777839 0.00272881 311.651 
438 1 0.0259157 0.000919027 0.00280466 379.037 
1194 1 0.0286065 0.000232978 0.00237905 346.764 
896 1 0.0318096 -0.000830484 0.00406577 392.717 
1030 1 0.0305119 0.000242498 0.00298658 349.965 
334 1 0.033172 -0.000725086 0.00260031 304.525 
19 1 0.0356439 -0.00022773 0.00234772 349.813 
65 1 0.0377027 0.000305464 0.00232351 338.024 
1120 1 0.0390534 -0.000489579 0.00382456 366.042 
1079 1 0.0395763 0.00096548 0.00255594 339.531 
1268 1 0.0407291 -0.00066785 0.0026123 331.483 
267 1 0.0425149 0.000767667 0.00266122 336.194 
307 1 0.0436758 2.84903e-05 0.00411238 414.265 
640 1 0.0445885 -0.000664407 0.00247324 343.677 
1235 1 0.0459945 0.00043435 0.00337651 342.305 
559 1 0.0474154 -0.000541394 0.0023621 311.996 
70 1 0.0493083 -0.000516063 0.00336394 345.749 
777 1 0.000999995 0.00110825 0.00381703 314.654 
471 1 0.000999996 0.00219067 0.00213525 312.268 
1043 1 0.00259936 0.0010612 0.00261711 325.017 
1165 1 0.0043985 0.00192522 0.00248846 350.1 
1342 1 0.00615918 0.00122393 0.00312734 353.362 
948 1 0.00824989 0.00209418 0.00238418 332.845 
73 1 0.00954494 0.00198347 0.0040064 390.866 
505 1 0.0109079 0.00187772 0.00253671 319.822 
921 1 0.0128894 0.00162969 0.00264707 320.934 
698 1 0.0148031 0.00263621 0.00214408 355.775 
542 1 0.0161275 0.00214771 0.00356089 364.767 
202 1 0.0179548 0.00149021 0.00405531 428.228 
1312 1 0.0198177 0.00190183 0.00345535 398.149 
1100 1 0.0218928 0.00199069 0.0026682 371.179 
902 1 0.024654 0.0020511 0.00386609 416.947 
715 1 0.0275718 0.00203697 0.00271739 380.622 
209 1 0.0292263 0.00157551 0.00374179 395.642 
68 1 0.030945 0.00242399 0.00317064 353.266 
189 1 0.0323332 0.0010903 0.00262827 322.618 
122 1 0.0331342 0.00221269 0.00408336 354.779 
1112 1 0.0343195 0.0011875 0.00284081 329.215 
1259 1 0.0371473 0.00244187 0.00221728 369.899 
570 1 0.0366618 0.0011466 0.00380976 401.587 
1070 1 0.0392343 0.0028996 0.00293307 329.506 