ITEM: TIMESTEP
21105000
ITEM: NUMBER OF ATOMS
5000
ITEM: BOX BOUNDS mm mm mm
0 0.1
-0.015 0.015
0 0.3
ITEM: ATOMS id type x y z f_Temp[0] 
977 1 0.00102825 -0.014 0.000999993 300.048 
581 1 0.00280539 -0.013082 0.000999998 300 
980 1 0.00536401 -0.0139934 0.000999992 300.061 
1252 1 0.00736682 -0.0139977 0.000999998 300 
648 1 0.00943464 -0.014 0.000999991 300.163 
1049 1 0.0114353 -0.0139954 0.000999998 300 
585 1 0.0133901 -0.013565 0.000999998 300 
453 1 0.0153494 -0.0139698 0.000999997 300.01 
812 1 0.0173493 -0.0139999 0.000999993 300.134 
1111 1 0.0195007 -0.0134438 0.000999984 300.157 
713 1 0.021422 -0.014 0.000999994 300.043 
1065 1 0.0234048 -0.014 0.00126756 300.021 
82 1 0.0265155 -0.0139931 0.000999994 300.103 
383 1 0.0285156 -0.014 0.000999992 300.094 
930 1 0.030521 -0.014 0.000999997 300.218 
936 1 0.0322405 -0.014 0.00202133 300.257 
1185 1 0.0365621 -0.014 0.000999997 300.074 
961 1 0.0387276 -0.014 0.00158109 300.269 
397 1 0.0415067 -0.014 0.000999998 300.096 
434 1 0.0453634 -0.0139995 0.000999989 300.043 
845 1 0.0473634 -0.013996 0.000999993 300.019 
69 1 0.0493634 -0.014 0.000999998 300 
775 1 0.00100002 -0.0113754 0.000999998 300 
100 1 0.0029795 -0.0110896 0.000999992 300.339 
914 1 0.00557519 -0.0112015 0.00100005 300.54 
80 1 0.00757517 -0.0111953 0.000999991 301.103 
451 1 0.00998402 -0.0120769 0.000999996 300.723 
796 1 0.00840292 -0.0126653 0.00207425 300.258 
693 1 0.0116631 -0.012314 0.00206038 300.947 
1317 1 0.0131863 -0.0115688 0.000999987 301.018 
915 1 0.0160944 -0.0121103 0.000999994 300.278 
410 1 0.0190455 -0.011496 0.000999996 300.279 
830 1 0.0224371 -0.0122702 0.000999998 300.002 
320 1 0.0247898 -0.0125822 0.000999992 300.178 
112 1 0.0274126 -0.0122056 0.000999996 300.314 
75 1 0.0305709 -0.0120006 0.000999993 300.858 
44 1 0.0325472 -0.012308 0.000999993 300.507 
903 1 0.0346614 -0.0124727 0.000999987 300.806 
501 1 0.0399655 -0.0125406 0.000999994 300.621 
606 1 0.0381813 -0.0121244 0.00200969 301.069 
895 1 0.0424953 -0.0112468 0.000999991 300.899 
98 1 0.0440827 -0.0124633 0.000999998 300.209 
591 1 0.0463633 -0.0121889 0.000999998 300 
260 1 0.0483399 -0.0113954 0.000999988 300.913 
341 1 0.00236835 -0.00912792 0.000999989 300.804 
781 1 0.00434315 -0.00962605 0.00099999 301.24 
163 1 0.00630249 -0.00922482 0.000999992 302.491 
180 1 0.00969329 -0.0104144 0.00207298 303.251 
657 1 0.0113778 -0.0106424 0.000999994 300.667 
479 1 0.0130888 -0.00957115 0.00099999 301.836 
1334 1 0.0156328 -0.00933789 0.000999989 302.139 
236 1 0.0173021 -0.0105161 0.00100003 301.096 
463 1 0.0189969 -0.0094543 0.000999987 302.454 
1058 1 0.020961 -0.0109208 0.000999997 300.358 
214 1 0.021988 -0.00920459 0.000999991 302.69 
48 1 0.0236592 -0.010687 0.000999996 300.594 
1001 1 0.0256579 -0.0107646 0.000999989 300.711 
157 1 0.0275721 -0.0101849 0.00099999 302.881 
154 1 0.0295703 -0.010269 0.000999998 303.276 
849 1 0.0316898 -0.0101272 0.000999998 300.287 
986 1 0.0337356 -0.0106994 0.000999992 302.311 
352 1 0.0353603 -0.00937906 0.000999998 302.839 
391 1 0.037078 -0.0107965 0.00099999 302.042 
828 1 0.0380495 -0.00904828 0.000999991 305.366 
1302 1 0.0391669 -0.010707 0.000999988 301.579 
1153 1 0.0410033 -0.00991491 0.000999992 302.457 
1029 1 0.0435086 -0.00935559 0.000999995 302.247 
734 1 0.0450013 -0.0106867 0.000999997 300.521 
168 1 0.0467898 -0.0104128 0.001852 301.198 
673 1 0.0479253 -0.00900397 0.000999991 302.574 
230 1 0.00208414 -0.00710001 0.000999993 303.234 
962 1 0.00400567 -0.00765473 0.000999989 304.36 
829 1 0.00807393 -0.0082964 0.000999989 306.592 
409 1 0.0100683 -0.00814704 0.00100015 303.681 
524 1 0.0120481 -0.00786324 0.000999994 303.708 
1221 1 0.0140493 -0.00781583 0.000999998 300.138 
1092 1 0.0173393 -0.0086903 0.00181755 306.138 
461 1 0.016624 -0.00701102 0.000999992 303.611 
1062 1 0.0197951 -0.00762048 0.000999986 309.022 
790 1 0.0215614 -0.00748521 0.00192831 315.33 
200 1 0.0233297 -0.00737885 0.000999993 308.351 
602 1 0.0247258 -0.00899514 0.000999997 301.123 
546 1 0.0254076 -0.0074302 0.00204216 303.417 
1240 1 0.0269157 -0.00822994 0.000999998 300.647 
247 1 0.0292594 -0.00829331 0.00099999 307.949 
973 1 0.0315646 -0.00811889 0.00099999 305.1 
1319 1 0.0334732 -0.00871669 0.000999992 304.215 
947 1 0.0365133 -0.00779137 0.00138712 302.316 
238 1 0.0398083 -0.00744564 0.000999998 304.244 
162 1 0.0418495 -0.00748743 0.000999997 300.957 
367 1 0.0444121 -0.00769988 0.0016651 302.727 
1274 1 0.0459344 -0.00881346 0.000999986 303.378 
1074 1 0.049852 -0.00837825 0.000999998 300 
28 1 0.0010002 -0.00541922 0.000999994 302.93 
956 1 0.00299509 -0.00525875 0.000999998 300 
134 1 0.00500411 -0.00536152 0.000999994 307.703 
825 1 0.00684751 -0.00671657 0.000999995 307.285 
976 1 0.00894151 -0.00649438 0.000999994 313.182 
169 1 0.0109715 -0.00601028 0.000999993 309.738 
556 1 0.0129962 -0.00610228 0.000999995 310.858 
421 1 0.0149261 -0.00609382 0.001525 308.567 
1217 1 0.0184323 -0.00615665 0.000999998 306.646 
1325 1 0.021061 -0.00573782 0.000999998 300 
496 1 0.0230199 -0.00528279 0.000999996 312.716 
639 1 0.024956 -0.005784 0.00099999 312.481 
1151 1 0.0269057 -0.0062297 0.000999984 314.393 
443 1 0.0289784 -0.00544191 0.000999998 300 
1231 1 0.0310306 -0.00545215 0.000999998 300 
146 1 0.0303193 -0.00698151 0.00207498 316.718 
1290 1 0.0330366 -0.00676492 0.000999997 305.678 
1075 1 0.0353259 -0.00621403 0.000999995 304.962 
618 1 0.038025 -0.00654034 0.000999998 300.906 
83 1 0.0399098 -0.00544822 0.000999985 315.725 
974 1 0.0424605 -0.00544572 0.000999991 312.224 
1289 1 0.0449382 -0.00588859 0.000999992 308.171 
772 1 0.0466402 -0.00609637 0.0020296 313.761 
530 1 0.0482999 -0.00652692 0.000999994 304.542 
283 1 0.00371052 -0.00338741 0.000999998 300 
750 1 0.00569455 -0.00311853 0.000999998 300 
234 1 0.00689912 -0.00471724 0.000999994 313.944 
1025 1 0.00808691 -0.00310806 0.000999998 300 
139 1 0.00957601 -0.00451692 0.000999998 300 
791 1 0.0119528 -0.0041857 0.000999985 324.415 
402 1 0.0153626 -0.004214 0.000999994 314.127 
1087 1 0.017357 -0.00447035 0.000999991 315.325 
519 1 0.0193899 -0.00431182 0.000999993 317.827 
275 1 0.0216938 -0.00378558 0.000999994 312.212 
142 1 0.0249492 -0.00393316 0.00175782 320.052 
90 1 0.0267754 -0.00423396 0.000999996 312.462 
492 1 0.032699 -0.00434362 0.000999993 314.442 
749 1 0.0350091 -0.00423928 0.000999994 314.862 
1187 1 0.0369358 -0.00484893 0.000999997 305.93 
175 1 0.0402006 -0.00358298 0.00166048 328.836 
1050 1 0.0420853 -0.00347573 0.000999995 310.148 
846 1 0.0439728 -0.00413701 0.000999988 315.157 
424 1 0.0456873 -0.00431841 0.00201368 314.787 
1243 1 0.0474114 -0.00430605 0.000999998 313.336 
3721 1 0.0493439 -0.00482097 0.000999988 309.73 
77 1 0.00106517 -0.00208058 0.000999998 300 
37 1 0.00269634 -0.00135299 0.00200246 326.038 
1108 1 0.00442621 -0.00130241 0.000999983 325.086 
385 1 0.0074663 -0.0011745 0.000999988 330.926 
89 1 0.0100507 -0.00255568 0.000999998 300 
318 1 0.0118586 -0.00167902 0.000999998 313.924 
32 1 0.0138228 -0.00205531 0.000999998 309.9 
964 1 0.0158217 -0.00212183 0.000999998 308.518 
1180 1 0.0177825 -0.00251614 0.000999993 315.969 
885 1 0.0201852 -0.00247261 0.000999997 318.433 
264 1 0.0220832 -0.00158202 0.000999986 329.163 
258 1 0.0241116 -0.00228266 0.001 327.371 
291 1 0.0258098 -0.00110755 0.000999998 311.661 
1052 1 0.0282802 -0.00291658 0.000999992 327.853 
486 1 0.0304223 -0.00274938 0.000999993 320.231 
401 1 0.0328101 -0.00186878 0.000999996 313.043 
91 1 0.0348112 -0.00186302 0.00099999 320.703 
1248 1 0.0364864 -0.00291987 0.00127711 312.236 
1196 1 0.0384654 -0.00283657 0.000999995 313.911 
351 1 0.0409167 -0.00183629 0.000999995 320.781 
1003 1 0.0429074 -0.00158966 0.000999997 313.442 
545 1 0.0452833 -0.00262575 0.000999997 317.986 
31 1 0.0472197 -0.00212533 0.000999991 316.164 
1027 1 0.0491105 -0.00283465 0.000999996 305.444 
620 1 0.00150677 0.000624044 0.000999984 317.021 
817 1 0.00370954 0.000569668 0.000999998 300 
127 1 0.00591125 -0.000406584 0.00199601 356.102 
306 1 0.00756563 0.000823028 0.000999994 319.756 
167 1 0.00960301 -0.000600847 0.000999992 335.667 
721 1 0.0132144 -0.000384327 0.00191523 352.241 
33 1 0.0157874 -0.000111214 0.000999998 300 
522 1 0.0178045 -0.000351796 0.000999998 300 
1330 1 0.0201725 -0.000472039 0.000999998 300 
624 1 0.0239822 -0.000286865 0.000999988 333.623 
799 1 0.0222849 0.000162791 0.00195755 361.322 
644 1 0.0278053 -0.000973797 0.000999988 338.709 
181 1 0.0267602 0.000746063 0.000999994 344.054 
289 1 0.0300684 -0.000444246 0.000999989 328.352 
899 1 0.0320249 -2.93762e-05 0.000999997 314.27 
184 1 0.0341146 1.687e-05 0.000999998 302.491 
1191 1 0.0369447 -0.000988266 0.000999998 308.619 
625 1 0.0395919 -0.000291028 0.000999998 315.469 
250 1 0.0417007 7.81935e-06 0.000999996 327.526 
1247 1 0.0440457 0.000574464 0.000999991 327.962 
518 1 0.045939 -0.000588995 0.000999992 336.334 
198 1 0.0476838 0.000898659 0.000999998 300 
527 1 0.0488465 -0.000852146 0.000999995 315.064 
904 1 0.0494914 0.00083641 0.00185608 341.943 
305 1 0.00264916 0.00226565 0.00100002 326.219 
408 1 0.00557638 0.00129512 0.000999993 339.844 
1037 1 0.00643218 0.00282586 0.00196146 368.724 
1054 1 0.00968458 0.00225442 0.000999996 320.328 
310 1 0.0118962 0.00105152 0.000999998 305.238 
364 1 0.0129022 0.00293552 0.000999998 310.613 
392 1 0.0139525 0.00123354 0.000999991 332.138 
430 1 0.0169059 0.00174167 0.000999993 336.967 
723 1 0.0189959 0.0017279 0.000999992 327.98 
279 1 0.0209923 0.00135248 0.000999998 300 
1099 1 0.0248586 0.00295496 0.000999993 340.378 
1044 1 0.0241312 0.00141222 0.00204443 376.122 
1226 1 0.0268526 0.0027672 0.000999989 356.774 
474 1 0.0285332 0.00167963 0.000999992 334.888 
1175 1 0.0304799 0.00146998 0.0014079 342.2 
280 1 0.033244 0.0018183 0.000999998 309.532 
476 1 0.0350733 0.0024588 0.0014934 336.089 
735 1 0.0363974 0.00104339 0.000999985 345.157 
311 1 0.0384834 0.00158561 0.000999987 347.588 
562 1 0.0405308 0.00178272 0.000999989 342.353 
197 1 0.0425283 0.0018813 0.000999995 327.794 
615 1 0.0443907 0.00261031 0.000999986 341.977 
568 1 0.0458138 0.00132471 0.00156747 367.118 
1197 1 0.0497082 0.00263088 0.000999994 341.415 
366 1 0.00100063 0.00383724 0.000999997 306.625 
920 1 0.0043839 0.00326097 0.00099999 331.079 
1036 1 0.00644525 0.00457953 0.000999989 332.685 
314 1 0.00844616 0.00420124 0.000999998 300 
1224 1 0.0104826 0.00408961 0.000999992 335.429 
1124 1 0.0123036 0.0049164 0.000999992 342.564 
1286 1 0.0152051 0.00422662 0.000999983 345.943 
972 1 0.0186014 0.00369399 0.000999996 321.681 
493 1 0.0202753 0.0030119 0.00185588 372.046 
939 1 0.02075 0.00475605 0.000999988 351.763 
923 1 0.0220823 0.00307749 0.000999993 337.807 
241 1 0.0235323 0.00445514 0.00099999 350.409 
322 1 0.0254857 0.00479463 0.00147149 355.082 
485 1 0.0274261 0.00468323 0.000999995 340.156 
814 1 0.0294225 0.00456453 0.000999989 346.424 
1229 1 0.031651 0.00303909 0.000999991 338.167 
879 1 0.0329337 0.004727 0.000999998 300 
1019 1 0.0354244 0.00436559 0.000999992 339.818 
26 1 0.0374497 0.00408387 0.000999998 300 
946 1 0.0393305 0.00340354 0.000999998 313.784 
1314 1 0.041438 0.0035651 0.000999997 332.548 
300 1 0.0429164 0.00497018 0.000999991 340.915 
757 1 0.0450353 0.00455744 0.000999996 330.897 
121 1 0.0464429 0.00313648 0.000999998 300 
2899 1 0.0491937 0.0045982 0.000999981 348.98 
235 1 0.0481355 0.00327053 0.00205706 377.046 
852 1 0.00147344 0.00578054 0.000999994 306.454 
143 1 0.00359123 0.00509717 0.000999997 326.651 
712 1 0.00611097 0.00655139 0.000999995 329.671 
857 1 0.00765647 0.00583318 0.0020467 351.791 
156 1 0.0101026 0.00606709 0.000999991 338.157 
733 1 0.0125017 0.00690655 0.000999988 346.897 
761 1 0.0142907 0.00601076 0.000999998 300 
1306 1 0.0170989 0.00501409 0.000999991 333.306 
1285 1 0.0165013 0.00696615 0.000999998 307.232 
237 1 0.0189814 0.0056897 0.000999997 328.129 
621 1 0.0222928 0.00602882 0.00099999 340.404 
1134 1 0.0242725 0.00631312 0.000999989 342.988 
1154 1 0.028986 0.0067722 0.000999991 345.506 
332 1 0.0310772 0.00569306 0.000999998 300 
404 1 0.0326452 0.00696578 0.000999994 333.997 
1299 1 0.0344553 0.0061151 0.000999994 332.883 
1088 1 0.0366774 0.00592881 0.000999988 361.984 
54 1 0.0390828 0.00538836 0.000999994 333.801 
176 1 0.0410339 0.00582837 0.000999992 334.495 
544 1 0.0455148 0.00651472 0.000999998 300 
469 1 0.0472716 0.00515104 0.000999995 328.01 
14 1 0.0486979 0.00655309 0.000999996 337.395 
741 1 0.000999996 0.00772368 0.00100003 310.606 
187 1 0.00278473 0.00862649 0.000999991 321.219 
540 1 0.00401709 0.00705129 0.000999987 325.313 
193 1 0.00477759 0.00895727 0.000999998 300 
253 1 0.0068207 0.00842122 0.000999996 326.167 
959 1 0.00850773 0.00730957 0.000999992 334.552 
328 1 0.0114071 0.00885007 0.000999998 300 
718 1 0.0132987 0.00844915 0.0019926 349.437 
978 1 0.0151909 0.00848408 0.000999991 337.314 
488 1 0.0171399 0.00893312 0.000999991 330.111 
847 1 0.0186891 0.00766823 0.000999992 332.322 
473 1 0.0206947 0.00740122 0.000999998 300 
854 1 0.0226507 0.00799697 0.000999991 346.409 
207 1 0.026375 0.00739617 0.000999998 300.103 
513 1 0.0293352 0.00896057 0.00151575 329.433 
651 1 0.0307733 0.00766986 0.000999989 334.061 
1298 1 0.0326488 0.00875108 0.00190147 332.118 
1244 1 0.0353883 0.00770327 0.00177925 366.155 
611 1 0.0372176 0.00791835 0.000999986 340.693 
730 1 0.03936 0.00754641 0.000999997 329.276 
835 1 0.0417267 0.00744182 0.00195747 378.49 
110 1 0.0436805 0.00766014 0.000999996 331.099 
428 1 0.0469194 0.00795518 0.000999997 310.312 
174 1 0.0497579 0.00825521 0.000999987 348.289 
205 1 0.00100021 0.00991911 0.000999985 311.002 
177 1 0.00272024 0.0104073 0.001908 321.47 
674 1 0.00638342 0.0103728 0.000999989 325.268 
79 1 0.00942032 0.00908922 0.000999998 334.394 
1320 1 0.0104938 0.0103921 0.00207241 347.31 
779 1 0.012119 0.0108494 0.00100017 331.032 
292 1 0.0139551 0.0100566 0.000999991 331.747 
11 1 0.015904 0.0105056 0.00099999 326.436 
50 1 0.0188973 0.00950435 0.00176508 322.624 
1042 1 0.0207436 0.0094288 0.000999998 306.6 
694 1 0.0226224 0.0101149 0.000999989 332.772 
147 1 0.0240051 0.00907428 0.00200252 361.903 
983 1 0.0256274 0.00967679 0.000999989 330.577 
798 1 0.0278229 0.0101635 0.000999996 313.101 
966 1 0.0311269 0.00968438 0.000999995 317.837 
1186 1 0.033815 0.0102344 0.000999995 323.861 
1091 1 0.035782 0.00950263 0.000999993 337.152 
93 1 0.0382867 0.00960858 0.000999998 332.689 
1160 1 0.0399631 0.0106994 0.000999988 319.151 
575 1 0.0411762 0.00910919 0.00099999 335.549 
985 1 0.04312 0.00957997 0.000999996 319.571 
359 1 0.0453271 0.00941899 0.000999995 327.13 
969 1 0.0472618 0.00992566 0.000999998 314.141 
78 1 0.0492059 0.0103951 0.000999992 316.072 
363 1 0.000999994 0.0125472 0.000999995 303.572 
811 1 0.00296408 0.0122886 0.00127469 311.383 
743 1 0.00449491 0.0110312 0.000999993 312.803 
1251 1 0.00600936 0.0123375 0.000999995 310.766 
72 1 0.009055 0.0112752 0.000999994 321.017 
1313 1 0.0110293 0.0125265 0.00099999 317.326 
654 1 0.0139151 0.0120596 0.000999989 322.919 
271 1 0.0178307 0.0110467 0.000999998 300 
15 1 0.0191506 0.0123316 0.00178965 318.161 
215 1 0.0208644 0.0116686 0.00099999 318.224 
420 1 0.0226323 0.0118976 0.00190669 324.136 
449 1 0.0244554 0.012149 0.000999998 308.895 
39 1 0.0263672 0.0115349 0.000999992 315.039 
188 1 0.0295985 0.0111181 0.000999991 322.319 
425 1 0.028129 0.0124814 0.000999992 307.632 
1095 1 0.0312193 0.01229 0.000999998 300.001 
1227 1 0.033219 0.0122468 0.000999995 313.487 
119 1 0.0353449 0.0122919 0.000999998 300 
650 1 0.0369685 0.0111127 0.000999989 325.649 
1138 1 0.0386186 0.0122428 0.000999992 318.916 
979 1 0.0405124 0.0124274 0.00184388 329.216 
316 1 0.0424181 0.0117033 0.000999998 308.643 
1297 1 0.0443447 0.0111611 0.00099999 324.655 
1206 1 0.046545 0.0118446 0.000999993 320.805 
380 1 0.0484365 0.0121497 0.00157368 312.904 
347 1 0.00209295 0.014 0.00183359 303.688 
309 1 0.00396196 0.014 0.000999998 304.829 
1130 1 0.00566062 0.014 0.00205571 311.501 
807 1 0.00735927 0.014 0.000999991 307.324 
114 1 0.00931258 0.0135525 0.000999993 308.785 
240 1 0.0123816 0.014 0.000999997 307.105 
672 1 0.0144052 0.014 0.000999998 304.218 
729 1 0.0161846 0.014 0.00191321 313.67 
758 1 0.0179409 0.0137147 0.000999996 308.721 
1038 1 0.0199206 0.014 0.000999993 307.315 
81 1 0.0217812 0.0139926 0.00173331 312.707 
676 1 0.0236419 0.0139761 0.000999994 306.821 
534 1 0.0264766 0.0137803 0.000999998 300 
526 1 0.0299137 0.014 0.000999997 302.88 
101 1 0.0322566 0.014 0.000999994 307.403 
1304 1 0.0342566 0.014 0.00099999 309.346 
1171 1 0.0370596 0.0139139 0.000999998 300 
442 1 0.0396097 0.014 0.000999989 314.832 
348 1 0.0423174 0.0137134 0.000999998 300 
626 1 0.0443208 0.014 0.000999994 307.534 
935 1 0.0466474 0.0139503 0.000999998 300 
766 1 0.0489339 0.014 0.000999995 308.174 
728 1 0.00392052 -0.014 0.00238429 300.135 
1249 1 0.00256444 -0.0132265 0.00363435 300.623 
929 1 0.00450257 -0.0131416 0.00412055 300.898 
1137 1 0.00634469 -0.014 0.00274303 300.304 
1097 1 0.0078871 -0.0133954 0.0038635 302.609 
598 1 0.0095839 -0.014 0.0029944 300.584 
1056 1 0.0115791 -0.014 0.0031329 300.522 
747 1 0.0135702 -0.014 0.00294461 300.104 
1337 1 0.0162623 -0.0135725 0.00273454 300.064 
789 1 0.0184969 -0.014 0.00263796 300.637 
894 1 0.0203583 -0.014 0.00336963 300.393 
507 1 0.0220847 -0.0132262 0.00272104 300.246 
170 1 0.0250702 -0.014 0.00238244 300.17 
993 1 0.0240141 -0.0139722 0.00408059 301.315 
1048 1 0.0275175 -0.0134232 0.00263438 300.425 
1267 1 0.0262053 -0.014 0.00402915 300.066 
43 1 0.0295 -0.014 0.00274091 300.265 
1169 1 0.0312288 -0.014 0.00374657 300.843 
1008 1 0.0331407 -0.0134146 0.0037886 300.303 
1168 1 0.0342309 -0.014 0.00221734 300.237 
288 1 0.0350354 -0.014 0.00404837 300.315 
158 1 0.0375146 -0.014 0.00317125 300.101 
47 1 0.0406544 -0.0133617 0.00269294 300.592 
274 1 0.0425983 -0.014 0.00386091 300.12 
652 1 0.0441287 -0.014 0.00257328 300.077 
689 1 0.0463276 -0.014 0.00275222 300.095 
1184 1 0.0483371 -0.014 0.00274697 300.094 
1026 1 0.000999991 -0.0126891 0.00251021 300.239 
261 1 0.000999995 -0.011326 0.00397369 301.352 
1343 1 0.00301409 -0.0113076 0.00397475 303.521 
87 1 0.00423913 -0.0120312 0.0022356 300.194 
355 1 0.00504244 -0.0112267 0.00391614 304.009 
1208 1 0.00656471 -0.0120234 0.00253146 300.208 
22 1 0.00843274 -0.011079 0.00371936 304.732 
378 1 0.0101037 -0.0120919 0.00329275 300.974 
1220 1 0.0128444 -0.012285 0.00367402 300.731 
4 1 0.0145348 -0.0124065 0.00221646 300.278 
336 1 0.015519 -0.0118383 0.00386221 300.332 
622 1 0.0176585 -0.0122282 0.00224094 300.19 
1077 1 0.0174136 -0.0112732 0.00416425 301.074 
736 1 0.0189909 -0.012447 0.00379728 303.807 
681 1 0.0203697 -0.0122626 0.00236006 300.1 
859 1 0.022665 -0.0115618 0.00410205 302.832 
806 1 0.0239103 -0.0124121 0.00278814 301.073 
1152 1 0.0260548 -0.0120702 0.00246214 301.077 
999 1 0.0279366 -0.0119296 0.00389669 301.05 
1316 1 0.0289735 -0.011821 0.0021899 301.257 
797 1 0.029953 -0.0124734 0.00395094 301.253 
1264 1 0.0315301 -0.0122716 0.00273395 300.434 
20 1 0.0336445 -0.0118753 0.00261523 302.408 
1336 1 0.0350723 -0.0118548 0.00401562 301.916 
1126 1 0.0354465 -0.0110244 0.00213404 302.565 
233 1 0.0359508 -0.0129117 0.00256269 300.396 
450 1 0.0369507 -0.0113847 0.00340195 301.389 
160 1 0.0392319 -0.0123737 0.00369314 302.776 
724 1 0.0409925 -0.0114286 0.00230715 302.747 
876 1 0.0419024 -0.0120667 0.00396995 301.779 
872 1 0.0425493 -0.0128203 0.00223337 300.187 
704 1 0.0449215 -0.0120423 0.00276611 300.278 
945 1 0.0469145 -0.0120959 0.00292509 300.517 
221 1 0.0489219 -0.0120878 0.00278378 300.657 
1245 1 0.000999993 -0.00928449 0.00395345 303.792 
744 1 0.00199872 -0.0103191 0.00256345 301.464 
635 1 0.00390569 -0.00984746 0.00293895 303.278 
136 1 0.00590224 -0.00974057 0.00289044 304.806 
418 1 0.00782929 -0.00974667 0.00235529 304.461 
1057 1 0.0112144 -0.00913699 0.00230648 302.962 
259 1 0.0102857 -0.010154 0.00396539 306.439 
1318 1 0.0125372 -0.0106075 0.00262928 304.553 
725 1 0.0121185 -0.00937428 0.00414712 320.58 
1205 1 0.0144017 -0.00990101 0.00247217 305.748 
422 1 0.0163222 -0.0103914 0.00273907 301.422 
924 1 0.0183927 -0.0103733 0.00267041 303.277 
395 1 0.0200087 -0.0107212 0.00379621 302.1 
1195 1 0.0205045 -0.00947314 0.00231414 301.348 
500 1 0.0225748 -0.0102262 0.0026161 302.52 
213 1 0.0246572 -0.0105577 0.00272838 301.355 
909 1 0.0263344 -0.0095128 0.00242 305.697 
740 1 0.0265318 -0.0105259 0.00413308 306.287 
521 1 0.0284821 -0.00929895 0.00254496 309.862 
997 1 0.0297075 -0.0105331 0.00353251 305.919 
445 1 0.0304806 -0.00911342 0.00235493 308.318 
1261 1 0.0322714 -0.0104207 0.00289093 301.663 
529 1 0.0340991 -0.00964259 0.00265859 309.779 
277 1 0.0355513 -0.00991304 0.00402491 309.704 
124 1 0.0367214 -0.00947922 0.002462 309.101 
960 1 0.0385169 -0.0102744 0.00284128 303.853 
510 1 0.0401572 -0.0106169 0.00393302 316.141 
533 1 0.0434256 -0.0107171 0.00268929 302.309 
552 1 0.044975 -0.00945352 0.0026339 307.839 
697 1 0.0458235 -0.0106606 0.00398403 304.613 
440 1 0.0475928 -0.00981798 0.00358448 304.13 
1021 1 0.0490805 -0.0100354 0.00226562 304.767 
95 1 0.0495155 -0.0105984 0.00413479 309.421 
564 1 0.00099999 -0.00828587 0.00219099 302.443 
1178 1 0.00294431 -0.00812116 0.0026297 301.865 
1005 1 0.00493772 -0.00799531 0.00273643 313.46 
284 1 0.00642498 -0.00807971 0.00407095 317.053 
27 1 0.00807073 -0.00718883 0.00266529 324.33 
344 1 0.00938651 -0.00866083 0.00298457 310.564 
455 1 0.0105623 -0.00708018 0.00263943 320.687 
636 1 0.0124312 -0.00770239 0.00298568 309.893 
1006 1 0.0139625 -0.00858986 0.00391714 321.277 
457 1 0.0154895 -0.00790228 0.00238508 300.962 
719 1 0.0174886 -0.00898444 0.00379015 318.874 
970 1 0.0173748 -0.00710733 0.00303941 309.673 
179 1 0.019032 -0.00819104 0.00275844 314.288 
138 1 0.0218439 -0.00861733 0.00355266 312.003 
818 1 0.0203462 -0.00738063 0.00402971 353.24 
246 1 0.0236322 -0.00852863 0.00260825 304.248 
52 1 0.0251761 -0.00874884 0.00386041 319.902 
788 1 0.0270982 -0.00816529 0.00368523 313.245 
988 1 0.028116 -0.00722336 0.00224411 322.057 
490 1 0.0294674 -0.00792801 0.00361716 326.338 
84 1 0.031579 -0.00882185 0.0040007 327.385 
574 1 0.0326897 -0.00787248 0.00263506 310.262 
1270 1 0.0346324 -0.00763772 0.00222151 307.854 
890 1 0.0361877 -0.00783246 0.00346367 323.475 
51 1 0.0380266 -0.00798128 0.00269142 321.693 
631 1 0.0399048 -0.00892272 0.00234495 302.287 
96 1 0.0393912 -0.00787195 0.00414942 346.137 
511 1 0.0410111 -0.00732224 0.00280826 305.832 
466 1 0.041122 -0.00887299 0.00410041 339.232 
1303 1 0.0421003 -0.00893786 0.00235721 311.269 
958 1 0.0436162 -0.00824038 0.00345969 325.317 
801 1 0.0466159 -0.00823817 0.00279014 310.835 
12 1 0.0485517 -0.00783185 0.00249456 310.723 
1322 1 0.00166231 -0.00652449 0.00286836 309.534 
1341 1 0.00396419 -0.00627271 0.00244508 310.273 
558 1 0.00510905 -0.00651309 0.00406821 348.151 
1255 1 0.00617585 -0.0056989 0.0025853 320.235 
56 1 0.00920399 -0.00554256 0.00273928 339.83 
1328 1 0.0124008 -0.00589791 0.00386145 369.092 
981 1 0.0141383 -0.00669754 0.00326137 314.959 
63 1 0.016488 -0.00538171 0.00255375 324.288 
942 1 0.0197866 -0.00626282 0.00246853 328.33 
1115 1 0.0187325 -0.00616465 0.0041654 355.145 
394 1 0.0204476 -0.00512481 0.00397452 334.15 
433 1 0.0221624 -0.00664013 0.00363846 360.818 
1004 1 0.0238057 -0.00623755 0.0025719 329.476 
957 1 0.0256907 -0.00562412 0.0028533 315.276 
436 1 0.0276169 -0.00518118 0.0025475 345.752 
769 1 0.0283152 -0.00634638 0.0040305 376.434 
141 1 0.0300155 -0.00540323 0.00326521 344.597 
59 1 0.0319484 -0.00601689 0.00271977 322.341 
104 1 0.0339034 -0.00541545 0.00219479 319.62 
489 1 0.0353605 -0.00612222 0.00408883 342.23 
1166 1 0.0366481 -0.00613693 0.00250276 308.059 
58 1 0.0378524 -0.00653306 0.00405974 357.764 
593 1 0.0392466 -0.00639765 0.00263055 319.076 
897 1 0.041185 -0.00533196 0.00253628 343.469 
1 1 0.0428685 -0.00661072 0.0025736 310.13 
759 1 0.0446992 -0.00576291 0.00298167 326.424 
396 1 0.0462771 -0.0066257 0.00392378 336.675 
1234 1 0.0482705 -0.00512445 0.00266 323.564 
3839 1 0.0498275 -0.00635211 0.00292208 332.714 
539 1 0.000999991 -0.00463755 0.00284091 308.514 
502 1 0.0028692 -0.00496099 0.00348449 311.903 
1090 1 0.00241806 -0.00326162 0.00253127 314.005 
666 1 0.00465322 -0.00440221 0.00271947 316.846 
102 1 0.00755571 -0.00396157 0.00273142 340.103 
263 1 0.00952789 -0.00357948 0.00294262 369.863 
659 1 0.0111076 -0.00492458 0.00267413 324.848 
61 1 0.0132155 -0.00474062 0.00244835 334.329 
701 1 0.014857 -0.00485586 0.003585 352.083 
968 1 0.0144952 -0.00320426 0.00249262 344.92 
949 1 0.0164875 -0.00336364 0.00242094 336.985 
815 1 0.0184075 -0.00482756 0.00266398 331.792 
941 1 0.0219151 -0.00493099 0.00262965 325.498 
793 1 0.0203805 -0.00364863 0.00260586 341.074 
371 1 0.0217992 -0.00348212 0.00400576 387.162 
437 1 0.0237219 -0.00436751 0.00327611 321.949 
232 1 0.0256883 -0.00374046 0.00360621 342.729 
1053 1 0.0274331 -0.0032043 0.00278871 325.068 
1113 1 0.0294168 -0.00367225 0.0024619 355.926 
239 1 0.0285386 -0.00436099 0.00412155 426.368 
125 1 0.0313661 -0.00411936 0.00247416 334.898 
503 1 0.0305202 -0.00320882 0.00406428 401.167 
685 1 0.0338027 -0.00315327 0.00216831 325.702 
1183 1 0.0329001 -0.00455259 0.00369441 332.199 
607 1 0.0355435 -0.00451931 0.00290681 342.861 
670 1 0.0344352 -0.0033252 0.00406679 410.79 
337 1 0.0372277 -0.00348272 0.00320522 352.311 
1129 1 0.0385362 -0.00458563 0.00217014 322.87 
731 1 0.0397943 -0.0039422 0.00358553 384.202 
571 1 0.0429846 -0.00447594 0.00270542 322.857 
971 1 0.0428698 -0.00304037 0.00409671 411.319 
708 1 0.0447234 -0.00389631 0.00371446 337.833 
886 1 0.0466457 -0.00466918 0.00373368 324.338 
1181 1 0.0478672 -0.0031672 0.00257964 345.989 
7 1 0.000999995 -0.00224926 0.00351349 322.725 
194 1 0.00444504 -0.00241389 0.00266259 338.067 
824 1 0.00663811 -0.002199 0.00250483 341.643 
850 1 0.00789364 -0.0024833 0.00403545 356.662 
520 1 0.00878403 -0.00181657 0.00236061 358.736 
1122 1 0.011365 -0.00295271 0.00246086 356.708 
1071 1 0.0110248 -0.00157098 0.0038662 419.47 
1326 1 0.0128951 -0.00189142 0.00319063 359.721 
592 1 0.0149515 -0.00128289 0.00280888 369.143 
251 1 0.0169801 -0.001426 0.00247444 342.526 
702 1 0.0161354 -0.00228746 0.00406953 334.366 
1149 1 0.0180125 -0.00280077 0.00358607 381.051 
379 1 0.0189674 -0.00158635 0.00231587 342.758 
1284 1 0.0210353 -0.00176092 0.00269408 368.892 
794 1 0.0227832 -0.00284188 0.00238658 342.727 
448 1 0.0225297 -0.0013417 0.0039554 409.408 
1114 1 0.0242126 -0.00239472 0.00371208 391.127 
1335 1 0.0270199 -0.00120829 0.00282432 397.412 
687 1 0.0291767 -0.00168212 0.00229324 362.888 
753 1 0.0287052 -0.00236798 0.00411184 432.815 
628 1 0.0312942 -0.00143576 0.00223057 328.597 
937 1 0.0323336 -0.00265285 0.00342984 374.334 
637 1 0.0355118 -0.00215918 0.00284971 360.935 
998 1 0.0373732 -0.001489 0.00314284 350.929 
128 1 0.0393168 -0.00208354 0.00264561 341.199 
871 1 0.0411969 -0.00260098 0.00308983 321.339 
992 1 0.0426257 -0.00120919 0.00294356 343.603 
587 1 0.0438385 -0.00269671 0.00238109 348.733 
710 1 0.0445866 -0.00189194 0.0040522 415.433 
512 1 0.0461727 -0.00207084 0.00270327 316.374 
21 1 0.0478069 -0.00170423 0.00394202 427.913 
1170 1 0.0495766 -0.00258666 0.00344025 370.201 
822 1 0.000999987 -0.000473589 0.00259319 318.559 
109 1 0.0024542 -0.000832872 0.00391839 356.723 
528 1 0.00578114 -0.000842966 0.00394346 420.294 
242 1 0.00411277 -0.000225061 0.00285187 337.683 
144 1 0.00763281 -0.000245222 0.00300108 369.223 
1192 1 0.00914761 -0.000927255 0.00411472 414.017 
419 1 0.00945075 0.000512878 0.0026542 376.492 
412 1 0.0112445 -0.000305026 0.0023172 323.551 
1076 1 0.0126516 8.4254e-06 0.00379379 409.199 
62 1 0.0149188 0.000712616 0.0026792 387.317 
296 1 0.0169126 0.000567618 0.00261911 381.852 
1125 1 0.0179476 -0.000535511 0.00398153 388.238 
229 1 0.0189022 0.000404401 0.0024965 371.675 
1121 1 0.0207436 0.000143193 0.00323189 387.465 
1269 1 0.0233602 0.000450973 0.00361969 426.682 
182 1 0.0248598 -0.000777839 0.00272881 328.367 
438 1 0.0259157 0.000919027 0.00280466 412.953 
1194 1 0.0286065 0.000232978 0.00237905 371.872 
896 1 0.0318096 -0.000830484 0.00406577 424.994 
1030 1 0.0305119 0.000242498 0.00298658 379.081 
334 1 0.033172 -0.000725086 0.00260031 312.632 
19 1 0.0356439 -0.00022773 0.00234772 374.268 
65 1 0.0377027 0.000305464 0.00232351 364.184 
1120 1 0.0390534 -0.000489579 0.00382456 401.77 
1079 1 0.0395763 0.00096548 0.00255594 366.934 
1268 1 0.0407291 -0.00066785 0.0026123 358.178 
267 1 0.0425149 0.000767667 0.00266122 360.37 
307 1 0.0436758 2.84905e-05 0.00411238 441.707 
640 1 0.0445885 -0.000664407 0.00247324 373.347 
1235 1 0.0459945 0.00043435 0.00337651 368.757 
559 1 0.0474154 -0.000541394 0.0023621 325.902 
70 1 0.0493083 -0.000516063 0.00336394 382.639 
777 1 0.000999995 0.00110825 0.00381703 323.259 
471 1 0.000999996 0.00219067 0.00213525 318.796 
1043 1 0.00259936 0.0010612 0.00261711 339.824 
1165 1 0.0043985 0.00192522 0.00248846 365.119 
1342 1 0.00615918 0.00122393 0.00312734 375.188 
948 1 0.00824989 0.00209418 0.00238418 350.686 
73 1 0.00954494 0.00198347 0.0040064 417.828 
505 1 0.0109079 0.00187772 0.00253671 335.281 
921 1 0.0128894 0.00162969 0.00264707 336.947 
698 1 0.0148031 0.00263621 0.00214408 374.83 
542 1 0.0161275 0.00214771 0.00356089 382.251 
202 1 0.0179548 0.00149021 0.00405531 445.886 
1312 1 0.0198177 0.00190183 0.00345535 421.81 
1100 1 0.0218928 0.00199069 0.0026682 394.293 
902 1 0.024654 0.0020511 0.00386609 436.854 
715 1 0.0275718 0.00203697 0.00271739 411.694 
209 1 0.0292263 0.00157551 0.00374179 430.152 
68 1 0.030945 0.00242399 0.00317064 383.002 
189 1 0.0323332 0.0010903 0.00262827 344.268 
122 1 0.0331342 0.00221269 0.00408336 388.944 
1112 1 0.0343195 0.0011875 0.00284081 354.682 
1259 1 0.0371473 0.00244187 0.00221728 391.445 
570 1 0.0366618 0.0011466 0.00380976 438.67 