ITEM: TIMESTEP
14695000
ITEM: NUMBER OF ATOMS
5000
ITEM: BOX BOUNDS mm mm mm
0 0.1
-0.015 0.015
0 0.3
ITEM: ATOMS id type x y z f_Temp[0] 
977 1 0.00102825 -0.014 0.000999993 300.001 
581 1 0.00280535 -0.013082 0.000999998 300 
980 1 0.00536401 -0.0139934 0.000999992 300.001 
1252 1 0.0073668 -0.0139976 0.000999998 300 
648 1 0.00943464 -0.014 0.000999991 300.004 
1049 1 0.0114353 -0.0139953 0.000999998 300 
585 1 0.0133901 -0.0135651 0.000999998 300 
453 1 0.0153494 -0.0139699 0.000999997 300 
812 1 0.0173493 -0.0139998 0.000999993 300.003 
1111 1 0.0195007 -0.0134438 0.000999984 300.004 
713 1 0.021422 -0.014 0.000999994 300 
1065 1 0.0234048 -0.014 0.00126756 300 
82 1 0.0265155 -0.0139931 0.000999994 300.001 
383 1 0.0285156 -0.014 0.000999992 300.001 
930 1 0.030521 -0.014 0.000999997 300.007 
936 1 0.0322405 -0.014 0.00202133 300.007 
1185 1 0.0365621 -0.014 0.000999997 300.002 
961 1 0.0387276 -0.014 0.00158109 300.004 
397 1 0.0415067 -0.014 0.000999998 300.001 
434 1 0.0453634 -0.0139995 0.000999989 300 
845 1 0.0473634 -0.013996 0.000999993 300 
69 1 0.0493634 -0.014 0.000999998 300 
775 1 0.00100002 -0.0113754 0.000999998 300 
100 1 0.0029795 -0.0110896 0.000999992 300.013 
914 1 0.00557519 -0.0112015 0.00100005 300.027 
80 1 0.00757517 -0.0111953 0.000999991 300.087 
451 1 0.00998402 -0.0120769 0.000999996 300.036 
796 1 0.00840292 -0.0126653 0.00207425 300.01 
693 1 0.0116631 -0.012314 0.00206038 300.044 
1317 1 0.0131863 -0.0115688 0.000999987 300.057 
915 1 0.0160944 -0.0121103 0.000999994 300.01 
410 1 0.0190455 -0.011496 0.000999996 300.01 
830 1 0.0224371 -0.0122702 0.000999998 300 
320 1 0.0247898 -0.0125822 0.000999992 300.002 
112 1 0.0274126 -0.0122056 0.000999996 300.006 
75 1 0.0305709 -0.0120006 0.000999993 300.038 
44 1 0.0325472 -0.012308 0.000999993 300.025 
903 1 0.0346614 -0.0124727 0.000999987 300.033 
501 1 0.0399655 -0.0125406 0.000999994 300.009 
606 1 0.0381813 -0.0121244 0.00200969 300.022 
895 1 0.0424953 -0.0112468 0.000999991 300.013 
98 1 0.0440827 -0.0124633 0.000999998 300.003 
591 1 0.0463598 -0.0121911 0.000999998 300 
260 1 0.0483399 -0.0113954 0.000999988 300.017 
341 1 0.00236835 -0.00912792 0.000999989 300.058 
781 1 0.00434315 -0.00962605 0.00099999 300.093 
163 1 0.00630249 -0.00922482 0.000999992 300.306 
180 1 0.00969329 -0.0104144 0.00207298 300.249 
657 1 0.0113778 -0.0106424 0.000999994 300.029 
479 1 0.0130888 -0.00957115 0.00099999 300.139 
1334 1 0.0156328 -0.00933789 0.000999989 300.118 
236 1 0.0173021 -0.0105161 0.00100003 300.058 
463 1 0.0189969 -0.0094543 0.000999987 300.205 
1058 1 0.020961 -0.0109208 0.000999997 300.019 
214 1 0.021988 -0.00920459 0.000999991 300.214 
48 1 0.0236592 -0.010687 0.000999996 300.018 
1001 1 0.0256579 -0.0107646 0.000999989 300.025 
157 1 0.0275721 -0.0101849 0.00099999 300.158 
154 1 0.0295703 -0.010269 0.000999998 300.195 
849 1 0.0316901 -0.0101266 0.000999998 300.012 
986 1 0.0337356 -0.0106994 0.000999992 300.167 
352 1 0.0353603 -0.00937906 0.000999998 300.13 
391 1 0.037078 -0.0107965 0.00099999 300.08 
828 1 0.0380495 -0.00904828 0.000999991 300.223 
1302 1 0.0391669 -0.010707 0.000999988 300.042 
1153 1 0.0410033 -0.00991491 0.000999992 300.054 
1029 1 0.0435086 -0.00935559 0.000999995 300.057 
734 1 0.0450013 -0.0106867 0.000999997 300.012 
168 1 0.0467898 -0.0104128 0.001852 300.033 
673 1 0.0479253 -0.00900397 0.000999991 300.085 
230 1 0.00208414 -0.00710001 0.000999993 300.382 
962 1 0.00400567 -0.00765473 0.000999989 300.578 
829 1 0.00807393 -0.0082964 0.000999989 301.295 
409 1 0.0100683 -0.00814704 0.00100015 300.423 
524 1 0.0120481 -0.00786324 0.000999994 300.552 
1221 1 0.0140493 -0.00781587 0.000999998 300.006 
1092 1 0.0173393 -0.0086903 0.00181755 300.418 
461 1 0.016624 -0.00701102 0.000999992 300.382 
1062 1 0.0197951 -0.00762048 0.000999986 301.239 
790 1 0.0215614 -0.00748521 0.00192831 301.607 
200 1 0.0233297 -0.00737885 0.000999993 300.715 
602 1 0.0247258 -0.00899514 0.000999997 300.054 
546 1 0.0254076 -0.0074302 0.00204216 300.28 
1240 1 0.0269157 -0.00822994 0.000999998 300.032 
247 1 0.0292594 -0.00829331 0.00099999 300.794 
973 1 0.0315646 -0.00811889 0.00099999 300.421 
1319 1 0.0334732 -0.00871669 0.000999992 300.307 
947 1 0.0365133 -0.00779137 0.00138712 300.217 
238 1 0.0398083 -0.00744564 0.000999998 300.379 
162 1 0.0418494 -0.00748757 0.000999997 300.038 
367 1 0.0444121 -0.00769988 0.0016651 300.145 
1274 1 0.0459344 -0.00881346 0.000999986 300.099 
1074 1 0.0498505 -0.00837694 0.000999998 300 
28 1 0.0010002 -0.00541922 0.000999994 300.547 
956 1 0.00299477 -0.00525812 0.000999998 300 
134 1 0.00500411 -0.00536152 0.000999994 301.015 
825 1 0.00684751 -0.00671657 0.000999995 301.101 
976 1 0.00894151 -0.00649438 0.000999994 303.399 
169 1 0.0109715 -0.00601028 0.000999993 301.79 
556 1 0.0129962 -0.00610228 0.000999995 302.352 
421 1 0.0149261 -0.00609382 0.001525 301.365 
1217 1 0.0184323 -0.00615665 0.000999998 300.995 
1325 1 0.0210596 -0.00573544 0.000999998 300 
496 1 0.0230199 -0.00528279 0.000999996 301.704 
639 1 0.024956 -0.005784 0.00099999 301.555 
1151 1 0.0269057 -0.0062297 0.000999984 302.526 
443 1 0.028984 -0.00546552 0.000999998 300 
1231 1 0.0310308 -0.00545226 0.000999998 300 
146 1 0.0303193 -0.00698151 0.00207498 302.072 
1290 1 0.0330366 -0.00676492 0.000999997 300.725 
1075 1 0.0353259 -0.00621403 0.000999995 300.698 
618 1 0.038025 -0.00654034 0.000999998 300.059 
83 1 0.0399098 -0.00544822 0.000999985 301.904 
974 1 0.0424605 -0.00544572 0.000999991 301.185 
1289 1 0.0449382 -0.00588859 0.000999992 300.669 
772 1 0.0466402 -0.00609637 0.0020296 300.989 
530 1 0.0482999 -0.00652692 0.000999994 300.235 
283 1 0.00371085 -0.00338749 0.000999998 300 
750 1 0.00569472 -0.00311863 0.000999998 300 
234 1 0.00689912 -0.00471724 0.000999994 302.995 
1025 1 0.00808643 -0.00310765 0.000999998 300 
139 1 0.00957784 -0.00451695 0.000999998 300 
791 1 0.0119528 -0.0041857 0.000999985 308.623 
402 1 0.0153626 -0.004214 0.000999994 303.858 
1087 1 0.017357 -0.00447035 0.000999991 303.485 
519 1 0.0193899 -0.00431182 0.000999993 304.448 
275 1 0.0216938 -0.00378558 0.000999994 302.504 
142 1 0.0249492 -0.00393316 0.00175782 303.787 
90 1 0.0267754 -0.00423396 0.000999996 302.195 
492 1 0.032699 -0.00434362 0.000999993 303.11 
749 1 0.0350091 -0.00423928 0.000999994 303.595 
1187 1 0.0369358 -0.00484893 0.000999997 300.843 
175 1 0.0402006 -0.00358298 0.00166048 304.419 
1050 1 0.0420853 -0.00347573 0.000999995 301.329 
846 1 0.0439728 -0.00413701 0.000999988 302.832 
424 1 0.0456873 -0.00431841 0.00201368 301.7 
1243 1 0.0474114 -0.00430605 0.000999998 302.782 
3721 1 0.0493439 -0.00482097 0.000999988 301.358 
77 1 0.00106327 -0.00206916 0.000999998 300 
37 1 0.00269634 -0.00135299 0.00200246 309.87 
1108 1 0.00442621 -0.00130241 0.000999983 311.016 
385 1 0.0074663 -0.0011745 0.000999988 315.134 
89 1 0.0100509 -0.00255532 0.000999998 300 
318 1 0.0118586 -0.00167902 0.000999998 304.291 
32 1 0.0138228 -0.00205531 0.000999998 302.414 
964 1 0.0158217 -0.00212183 0.000999998 302.097 
1180 1 0.0177825 -0.00251614 0.000999993 304.614 
885 1 0.0201852 -0.00247261 0.000999997 305.303 
264 1 0.0220832 -0.00158202 0.000999986 308.981 
258 1 0.0241116 -0.00228266 0.001 307.354 
291 1 0.0258098 -0.00110755 0.000999998 302.5 
1052 1 0.0282802 -0.00291658 0.000999992 308.276 
486 1 0.0304223 -0.00274938 0.000999993 304.543 
401 1 0.0328101 -0.00186878 0.000999996 302.961 
91 1 0.0348112 -0.00186302 0.00099999 306.581 
1248 1 0.0364864 -0.00291987 0.00127711 302.331 
1196 1 0.0384654 -0.00283657 0.000999995 302.908 
351 1 0.0409167 -0.00183629 0.000999995 304.611 
1003 1 0.0429072 -0.0015898 0.000999997 302.655 
545 1 0.0452833 -0.00262575 0.000999997 303.818 
31 1 0.0472197 -0.00212533 0.000999991 304.119 
1027 1 0.0491105 -0.00283465 0.000999996 301.109 
620 1 0.00150677 0.000624044 0.000999984 307.392 
817 1 0.00371015 0.000569538 0.000999998 300 
127 1 0.00591125 -0.000406584 0.00199601 333.404 
306 1 0.00756563 0.000823028 0.000999994 308.638 
167 1 0.00960301 -0.000600847 0.000999992 316.608 
721 1 0.0132144 -0.000384327 0.00191523 318.523 
33 1 0.0157856 -0.000111767 0.000999998 300 
522 1 0.0178024 -0.000347469 0.000999998 300 
1330 1 0.0201727 -0.000472085 0.000999998 300 
624 1 0.0239822 -0.000286865 0.000999988 314.481 
799 1 0.0222849 0.000162791 0.00195755 328.636 
644 1 0.0278053 -0.000973797 0.000999988 315.747 
181 1 0.0267603 0.000746363 0.000999994 317.976 
289 1 0.0300684 -0.000444246 0.000999989 309.767 
899 1 0.0320249 -2.93762e-05 0.000999997 303.818 
184 1 0.0341146 1.69119e-05 0.000999998 300.421 
1191 1 0.0369445 -0.000988184 0.000999998 302.654 
625 1 0.0395799 -0.000291119 0.000999998 304.53 
250 1 0.0417007 7.8194e-06 0.000999996 308.819 
1247 1 0.0440454 0.000574333 0.000999991 310.053 
518 1 0.045939 -0.000588995 0.000999992 316.101 
198 1 0.0476838 0.0008986 0.000999998 300 
527 1 0.0488465 -0.000852146 0.000999995 304.969 
904 1 0.0494914 0.00083641 0.00185608 317.445 
305 1 0.00264916 0.00226565 0.00100002 312.79 
408 1 0.00557638 0.00129512 0.000999993 321.952 
1037 1 0.00643218 0.00282586 0.00196146 342.717 
1054 1 0.00968458 0.00225442 0.000999996 308.824 
310 1 0.0118959 0.00105168 0.000999998 301.442 
364 1 0.0129022 0.00293552 0.000999998 304.185 
392 1 0.0139525 0.00123354 0.000999991 314.663 
430 1 0.0169059 0.00174167 0.000999993 317.894 
723 1 0.0189962 0.00172787 0.000999992 311.468 
279 1 0.0209922 0.00135249 0.000999998 300 
1099 1 0.0248586 0.00295496 0.000999993 322.17 
1044 1 0.0241312 0.00141222 0.00204443 344.152 
1226 1 0.0268526 0.0027672 0.000999989 330.667 
474 1 0.0285332 0.00167963 0.000999992 315.1 
1175 1 0.0304799 0.00146998 0.0014079 316.168 
280 1 0.033244 0.00181831 0.000999998 302.973 
476 1 0.0350733 0.0024588 0.0014934 314.361 
735 1 0.0363974 0.00104339 0.000999985 323.101 
311 1 0.0384834 0.00158561 0.000999987 324.069 
562 1 0.0405308 0.00178272 0.000999989 322.217 
197 1 0.0425283 0.0018813 0.000999995 313.69 
615 1 0.0443907 0.00261031 0.000999986 324.026 
568 1 0.0458138 0.00132471 0.00156747 338.116 
1197 1 0.0497082 0.00263088 0.000999994 321.394 
366 1 0.00100063 0.00383724 0.000999997 303.204 
920 1 0.0043839 0.00326097 0.00099999 319.032 
1036 1 0.00644526 0.00457953 0.000999989 320.411 
314 1 0.00844782 0.00420588 0.000999998 300 
1224 1 0.0104826 0.00408961 0.000999992 321.407 
1124 1 0.0123036 0.0049164 0.000999992 328.696 
1286 1 0.0152051 0.00422662 0.000999983 330.242 
972 1 0.0186014 0.00369399 0.000999996 312.159 
493 1 0.0202753 0.0030119 0.00185588 342.196 
939 1 0.02075 0.00475605 0.000999988 334.099 
923 1 0.0220823 0.00307749 0.000999993 321.591 
241 1 0.0235323 0.00445514 0.00099999 332.005 
322 1 0.0254857 0.00479463 0.00147149 335.922 
485 1 0.0274261 0.00468323 0.000999995 325.482 
814 1 0.0294225 0.00456453 0.000999989 328.671 
1229 1 0.031651 0.00303909 0.000999991 317.933 
879 1 0.0329302 0.0047256 0.000999998 300 
1019 1 0.0354244 0.00436559 0.000999992 326.044 
26 1 0.0374497 0.00408384 0.000999998 300 
946 1 0.0393304 0.00340355 0.000999998 305.072 
1314 1 0.041438 0.0035651 0.000999997 316.686 
300 1 0.0429164 0.00497018 0.000999991 326.325 
757 1 0.0450352 0.0045574 0.000999996 319.723 
121 1 0.0464429 0.00313648 0.000999998 300 
2899 1 0.0491937 0.0045982 0.000999981 334.304 
235 1 0.0481355 0.00327053 0.00205706 349.153 
852 1 0.00147344 0.00578054 0.000999994 304.05 
143 1 0.00359123 0.00509717 0.000999997 316.202 
712 1 0.00611097 0.00655139 0.000999995 321.3 
857 1 0.00765647 0.00583318 0.0020467 336.497 
156 1 0.010103 0.0060673 0.000999991 327.241 
733 1 0.0125017 0.00690655 0.000999988 334.871 
761 1 0.0142905 0.00601058 0.000999998 300 
1306 1 0.0170989 0.00501409 0.000999991 323.541 
1285 1 0.0165015 0.00696687 0.000999998 303.164 
237 1 0.0189814 0.0056897 0.000999997 317.965 
621 1 0.0222928 0.00602882 0.00099999 329.137 
1134 1 0.0242725 0.00631312 0.000999989 330.481 
1154 1 0.028986 0.0067722 0.000999991 331.91 
332 1 0.0310772 0.00569307 0.000999998 300 
404 1 0.0326452 0.00696578 0.000999994 322.079 
1299 1 0.0344553 0.0061151 0.000999994 320.525 
1088 1 0.0366774 0.00592881 0.000999988 348.917 
54 1 0.0390828 0.00538836 0.000999994 323.473 
176 1 0.0410339 0.00582837 0.000999993 322.22 
544 1 0.045519 0.00651222 0.000999998 300 
469 1 0.0472716 0.00515104 0.000999995 314.681 
14 1 0.048698 0.00655308 0.000999996 326.548 
741 1 0.000999996 0.00772368 0.00100003 308.981 
187 1 0.00278473 0.00862649 0.000999991 317.766 
540 1 0.00401709 0.00705129 0.000999987 318.56 
193 1 0.0047753 0.00896049 0.000999998 300 
253 1 0.0068207 0.00842122 0.000999996 320.344 
959 1 0.00850773 0.00730957 0.000999992 326.014 
328 1 0.0114072 0.00885314 0.000999998 300 
718 1 0.0132987 0.00844915 0.0019926 335.335 
978 1 0.0151909 0.00848408 0.000999991 328.632 
488 1 0.0171399 0.00893312 0.000999991 322.321 
847 1 0.0186891 0.00766823 0.000999992 322.496 
473 1 0.0206942 0.00740145 0.000999998 300 
854 1 0.0226507 0.00799697 0.000999991 335.893 
207 1 0.026375 0.00739625 0.000999998 300 
513 1 0.0293352 0.00896057 0.00151575 319.898 
651 1 0.0307733 0.00766986 0.000999989 323.514 
1298 1 0.0326488 0.00875108 0.00190147 318.356 
1244 1 0.0353883 0.00770327 0.00177925 348.426 
611 1 0.0372176 0.00791835 0.000999986 329.172 
730 1 0.0393578 0.00754942 0.000999997 319.339 
835 1 0.0417267 0.00744182 0.00195747 358.652 
110 1 0.0436805 0.00766014 0.000999996 321.617 
428 1 0.0469194 0.00795518 0.000999997 304.206 
174 1 0.0497579 0.00825521 0.000999987 335.891 
205 1 0.00100021 0.00991911 0.000999985 310.129 
177 1 0.00272024 0.0104073 0.001908 318.713 
674 1 0.00638342 0.0103728 0.000999989 321.833 
79 1 0.00942032 0.00908922 0.000999998 327.099 
1320 1 0.0104938 0.0103921 0.00207241 338.684 
779 1 0.012119 0.0108494 0.00100017 323.301 
292 1 0.0139551 0.0100566 0.000999991 323.915 
11 1 0.015904 0.0105056 0.00099999 320.321 
50 1 0.0188973 0.00950435 0.00176508 313.584 
1042 1 0.0207436 0.00942883 0.000999998 303.233 
694 1 0.0226224 0.0101149 0.000999989 325.449 
147 1 0.0240051 0.00907428 0.00200252 350.424 
983 1 0.0256274 0.00967679 0.000999989 322.28 
798 1 0.0278229 0.0101635 0.000999996 308.201 
966 1 0.0311269 0.00968438 0.000999995 310.464 
1186 1 0.033815 0.0102344 0.000999995 315.701 
1091 1 0.035782 0.00950263 0.000999993 327.548 
93 1 0.0382867 0.00960858 0.000999998 322.853 
1160 1 0.0399631 0.0106994 0.000999988 312.415 
575 1 0.0411762 0.00910919 0.00099999 324.499 
985 1 0.04312 0.00957997 0.000999996 312.549 
359 1 0.0453271 0.00941899 0.000999995 318.63 
969 1 0.0472618 0.00992566 0.000999998 308.301 
78 1 0.0492059 0.0103951 0.000999992 310.008 
363 1 0.000999994 0.0125472 0.000999995 302.603 
811 1 0.00296408 0.0122886 0.00127469 308.947 
743 1 0.00449491 0.0110312 0.000999993 310.102 
1251 1 0.00600936 0.0123375 0.000999995 308.626 
72 1 0.009055 0.0112752 0.000999994 316.185 
1313 1 0.0110293 0.0125265 0.00099999 313.056 
654 1 0.0139151 0.0120596 0.000999989 317.751 
271 1 0.0178305 0.0110471 0.000999998 300 
15 1 0.0191506 0.0123316 0.00178965 311.407 
215 1 0.0208644 0.0116686 0.00099999 312.972 
420 1 0.0226323 0.0118976 0.00190669 315.675 
449 1 0.0244555 0.012149 0.000999998 304.708 
39 1 0.0263672 0.0115349 0.000999992 310.218 
188 1 0.0295985 0.0111181 0.000999991 315.505 
425 1 0.028129 0.0124814 0.000999992 304.908 
1095 1 0.0312193 0.01229 0.000999998 300.002 
1227 1 0.033219 0.0122468 0.000999995 308.72 
119 1 0.0353448 0.0122907 0.000999998 300 
650 1 0.0369685 0.0111127 0.000999989 318.125 
1138 1 0.0386186 0.0122428 0.000999992 312.925 
979 1 0.0405124 0.0124274 0.00184388 321.019 
316 1 0.0424183 0.0117034 0.000999998 304.493 
1297 1 0.0443447 0.0111611 0.00099999 316.675 
1206 1 0.046545 0.0118446 0.000999993 313.918 
380 1 0.0484365 0.0121497 0.00157368 306.89 
347 1 0.00209295 0.014 0.00183359 302.571 
309 1 0.00396196 0.014 0.000999998 303.638 
1130 1 0.00566062 0.014 0.00205571 309.53 
807 1 0.00735927 0.014 0.000999991 305.646 
114 1 0.00931258 0.0135525 0.000999993 306.156 
240 1 0.0123816 0.014 0.000999997 305.002 
672 1 0.0144052 0.014 0.000999998 302.465 
729 1 0.0161846 0.014 0.00191321 309.94 
758 1 0.0179409 0.0137147 0.000999996 305.31 
1038 1 0.0199206 0.014 0.000999993 304.346 
81 1 0.0217812 0.0139926 0.00173331 308.135 
676 1 0.0236419 0.0139761 0.000999994 304.085 
534 1 0.0264789 0.0137731 0.000999998 300 
526 1 0.0299137 0.014 0.000999997 301.229 
101 1 0.0322566 0.014 0.000999994 304.603 
1304 1 0.0342566 0.014 0.00099999 306.748 
1171 1 0.0370764 0.0139057 0.000999998 300 
442 1 0.0396097 0.014 0.000999989 310.183 
348 1 0.042321 0.0137118 0.000999998 300 
626 1 0.0443208 0.014 0.000999994 304.184 
935 1 0.0466555 0.0139455 0.000999998 300 
766 1 0.0489339 0.014 0.000999995 304.301 
728 1 0.00392052 -0.014 0.00238429 300.003 
1249 1 0.00256444 -0.0132265 0.00363435 300.014 
929 1 0.00450257 -0.0131416 0.00412055 300.027 
1137 1 0.00634469 -0.014 0.00274303 300.003 
1097 1 0.0078871 -0.0133954 0.0038635 300.016 
598 1 0.0095839 -0.014 0.0029944 300.006 
1056 1 0.0115791 -0.014 0.0031329 300.009 
747 1 0.0135702 -0.014 0.00294461 300.002 
1337 1 0.0162623 -0.0135725 0.00273454 300.001 
789 1 0.0184969 -0.014 0.00263796 300.017 
894 1 0.0203583 -0.014 0.00336963 300.005 
507 1 0.0220847 -0.0132262 0.00272104 300.003 
170 1 0.0250702 -0.014 0.00238244 300.001 
993 1 0.0240141 -0.0139722 0.00408059 300.01 
1048 1 0.0275175 -0.0134232 0.00263438 300.004 
1267 1 0.0262053 -0.014 0.00402915 300.001 
43 1 0.0295 -0.014 0.00274091 300.005 
1169 1 0.0312288 -0.014 0.00374657 300.013 
1008 1 0.0331407 -0.0134146 0.0037886 300.004 
1168 1 0.0342309 -0.014 0.00221734 300.006 
288 1 0.0350354 -0.014 0.00404837 300.005 
158 1 0.0375146 -0.014 0.00317125 300.002 
47 1 0.0406544 -0.0133617 0.00269294 300.005 
274 1 0.0425983 -0.014 0.00386091 300 
652 1 0.0441287 -0.014 0.00257328 300.001 
689 1 0.0463276 -0.014 0.00275222 300.001 
1184 1 0.0483371 -0.014 0.00274697 300.001 
1026 1 0.000999991 -0.0126891 0.00251021 300.006 
261 1 0.000999995 -0.011326 0.00397369 300.036 
1343 1 0.00301409 -0.0113076 0.00397475 300.078 
87 1 0.00423913 -0.0120312 0.0022356 300.005 
355 1 0.00504244 -0.0112267 0.00391614 300.145 
1208 1 0.00656471 -0.0120234 0.00253146 300.006 
22 1 0.00843274 -0.011079 0.00371936 300.173 
378 1 0.0101037 -0.0120919 0.00329275 300.032 
1220 1 0.0128444 -0.012285 0.00367402 300.03 
4 1 0.0145348 -0.0124065 0.00221646 300.01 
336 1 0.015519 -0.0118383 0.00386221 300.009 
622 1 0.0176585 -0.0122282 0.00224094 300.004 
1077 1 0.0174136 -0.0112732 0.00416425 300.033 
736 1 0.0189909 -0.012447 0.00379728 300.1 
681 1 0.0203697 -0.0122626 0.00236006 300.002 
859 1 0.022665 -0.0115618 0.00410205 300.038 
806 1 0.0239103 -0.0124121 0.00278814 300.015 
1152 1 0.0260548 -0.0120702 0.00246214 300.014 
999 1 0.0279366 -0.0119296 0.00389669 300.017 
1316 1 0.0289735 -0.011821 0.0021899 300.039 
797 1 0.029953 -0.0124734 0.00395094 300.037 
1264 1 0.0315301 -0.0122716 0.00273395 300.015 
20 1 0.0336445 -0.0118753 0.00261523 300.077 
1336 1 0.0350723 -0.0118548 0.00401562 300.108 
1126 1 0.0354465 -0.0110244 0.00213404 300.181 
233 1 0.0359508 -0.0129117 0.00256269 300.015 
450 1 0.0369507 -0.0113847 0.00340195 300.039 
160 1 0.0392319 -0.0123737 0.00369314 300.024 
724 1 0.0409925 -0.0114286 0.00230715 300.027 
876 1 0.0419024 -0.0120667 0.00396995 300.009 
872 1 0.0425493 -0.0128203 0.00223337 300.002 
704 1 0.0449215 -0.0120423 0.00276611 300.004 
945 1 0.0469145 -0.0120959 0.00292509 300.007 
221 1 0.0489219 -0.0120878 0.00278378 300.006 
1245 1 0.000999993 -0.00928449 0.00395345 300.282 
744 1 0.00199872 -0.0103191 0.00256345 300.077 
635 1 0.00390569 -0.00984746 0.00293895 300.228 
136 1 0.00590224 -0.00974057 0.00289044 300.571 
418 1 0.00782929 -0.00974667 0.00235529 300.507 
1057 1 0.0112144 -0.00913699 0.00230648 300.211 
259 1 0.0102857 -0.010154 0.00396539 300.275 
1318 1 0.0125372 -0.0106075 0.00262928 300.302 
725 1 0.0121185 -0.00937428 0.00414712 301.491 
1205 1 0.0144017 -0.00990101 0.00247217 300.313 
422 1 0.0163222 -0.0103914 0.00273907 300.062 
924 1 0.0183927 -0.0103733 0.00267041 300.181 
395 1 0.0200087 -0.0107212 0.00379621 300.087 
1195 1 0.0205045 -0.00947314 0.00231414 300.066 
500 1 0.0225748 -0.0102262 0.0026161 300.108 
213 1 0.0246572 -0.0105577 0.00272838 300.049 
909 1 0.0263344 -0.0095128 0.00242 300.299 
740 1 0.0265318 -0.0105259 0.00413308 300.104 
521 1 0.0284821 -0.00929895 0.00254496 300.722 
997 1 0.0297075 -0.0105331 0.00353251 300.251 
445 1 0.0304806 -0.00911342 0.00235493 300.466 
1261 1 0.0322714 -0.0104207 0.00289093 300.11 
529 1 0.0340991 -0.00964259 0.00265859 301.037 
277 1 0.0355513 -0.00991304 0.00402491 300.872 
124 1 0.0367214 -0.00947922 0.002462 300.391 
960 1 0.0385169 -0.0102744 0.00284128 300.077 
510 1 0.0401572 -0.0106169 0.00393302 300.174 
533 1 0.0434256 -0.0107171 0.00268929 300.039 
552 1 0.044975 -0.00945352 0.0026339 300.213 
697 1 0.0458235 -0.0106606 0.00398403 300.071 
440 1 0.0475928 -0.00981798 0.00358448 300.135 
1021 1 0.0490805 -0.0100354 0.00226562 300.108 
95 1 0.0495155 -0.0105984 0.00413479 300.108 
564 1 0.00099999 -0.00828587 0.00219099 300.3 
1178 1 0.00294431 -0.00812116 0.0026297 300.126 
1005 1 0.00493772 -0.00799531 0.00273643 302.519 
284 1 0.00642498 -0.00807971 0.00407095 303.917 
27 1 0.00807073 -0.00718883 0.00266529 306.63 
344 1 0.00938651 -0.00866083 0.00298457 301.636 
455 1 0.0105623 -0.00708018 0.00263943 304.881 
636 1 0.0124312 -0.00770239 0.00298568 301.146 
1006 1 0.0139625 -0.00858986 0.00391714 301.617 
457 1 0.0154895 -0.00790228 0.00238508 300.058 
719 1 0.0174886 -0.00898444 0.00379015 301.026 
970 1 0.0173748 -0.00710733 0.00303941 300.962 
179 1 0.019032 -0.00819104 0.00275844 301.042 
138 1 0.0218439 -0.00861733 0.00355266 300.592 
818 1 0.0203462 -0.00738063 0.00402971 303.834 
246 1 0.0236322 -0.00852863 0.00260825 300.24 
52 1 0.0251761 -0.00874884 0.00386041 301.418 
788 1 0.0270982 -0.00816529 0.00368523 300.817 
988 1 0.028116 -0.00722336 0.00224411 303.032 
490 1 0.0294674 -0.00792801 0.00361716 303.214 
84 1 0.031579 -0.00882185 0.0040007 301.656 
574 1 0.0326897 -0.00787248 0.00263506 300.858 
1270 1 0.0346324 -0.00763772 0.00222151 300.501 
890 1 0.0361877 -0.00783246 0.00346367 301.598 
51 1 0.0380266 -0.00798128 0.00269142 301.066 
631 1 0.0399048 -0.00892272 0.00234495 300.1 
96 1 0.0393912 -0.00787195 0.00414942 301.642 
511 1 0.0410111 -0.00732224 0.00280826 300.287 
466 1 0.041122 -0.00887299 0.00410041 300.892 
1303 1 0.0421003 -0.00893786 0.00235721 300.273 
958 1 0.0436162 -0.00824038 0.00345969 300.906 
801 1 0.0466159 -0.00823817 0.00279014 300.389 
12 1 0.0485517 -0.00783185 0.00249456 300.494 
1322 1 0.00166231 -0.00652449 0.00286836 301.572 
1341 1 0.00396419 -0.00627271 0.00244508 301.308 
558 1 0.00510905 -0.00651309 0.00406821 310.524 
1255 1 0.00617585 -0.0056989 0.0025853 304.223 
56 1 0.00920399 -0.00554256 0.00273928 314.309 
1328 1 0.0124008 -0.00589791 0.00386145 317.706 
981 1 0.0141383 -0.00669754 0.00326137 301.613 
63 1 0.016488 -0.00538171 0.00255375 304.347 
942 1 0.0197866 -0.00626282 0.00246853 305.727 
1115 1 0.0187325 -0.00616465 0.0041654 317.955 
394 1 0.0204476 -0.00512481 0.00397452 311.149 
433 1 0.0221624 -0.00664013 0.00363846 307.405 
1004 1 0.0238057 -0.00623755 0.0025719 302.93 
957 1 0.0256907 -0.00562412 0.0028533 302.2 
436 1 0.0276169 -0.00518118 0.0025475 311.865 
769 1 0.0283152 -0.00634638 0.0040305 313.393 
141 1 0.0300155 -0.00540323 0.00326521 308.091 
59 1 0.0319484 -0.00601689 0.00271977 303.634 
104 1 0.0339034 -0.00541545 0.00219479 303.952 
489 1 0.0353605 -0.00612222 0.00408883 306.778 
1166 1 0.0366481 -0.00613693 0.00250276 301.435 
58 1 0.0378524 -0.00653306 0.00405974 303.789 
593 1 0.0392466 -0.00639765 0.00263055 301.632 
897 1 0.041185 -0.00533196 0.00253628 305.024 
1 1 0.0428685 -0.00661072 0.0025736 300.434 
759 1 0.0446992 -0.00576291 0.00298167 301.414 
396 1 0.0462771 -0.0066257 0.00392378 301.749 
1234 1 0.0482705 -0.00512445 0.00266 303.638 
3839 1 0.0498275 -0.00635211 0.00292208 302.409 
539 1 0.000999991 -0.00463755 0.00284091 302.425 
502 1 0.0028692 -0.00496099 0.00348449 301.948 
1090 1 0.00241806 -0.00326162 0.00253127 303.389 
666 1 0.00465322 -0.00440221 0.00271947 303.054 
102 1 0.00755571 -0.00396157 0.00273142 312.42 
263 1 0.0095279 -0.00357948 0.00294262 338.389 
659 1 0.0111076 -0.00492458 0.00267413 306.243 
61 1 0.0132155 -0.00474062 0.00244835 309.651 
701 1 0.014857 -0.00485586 0.003585 315.354 
968 1 0.0144952 -0.00320426 0.00249262 316.875 
949 1 0.0164875 -0.00336364 0.00242094 312.378 
815 1 0.0184075 -0.00482756 0.00266398 307.574 
941 1 0.0219151 -0.00493099 0.00262965 305.394 
793 1 0.0203805 -0.00364863 0.00260586 315.6 
371 1 0.0217992 -0.00348212 0.00400576 331.036 
437 1 0.0237219 -0.00436751 0.00327611 303.687 
232 1 0.0256883 -0.00374046 0.00360621 311.198 
1053 1 0.0274331 -0.0032043 0.00278871 304.202 
1113 1 0.0294168 -0.00367225 0.0024619 316.875 
239 1 0.0285386 -0.00436099 0.00412155 343.445 
125 1 0.0313661 -0.00411936 0.00247416 309.827 
503 1 0.0305202 -0.00320882 0.00406428 344.152 
685 1 0.0338027 -0.00315327 0.00216831 307.696 
1183 1 0.0329001 -0.00455259 0.00369441 308.492 
607 1 0.0355435 -0.00451931 0.00290681 313.407 
670 1 0.0344352 -0.0033252 0.00406679 353.99 
337 1 0.0372277 -0.00348272 0.00320522 317.448 
1129 1 0.0385362 -0.00458563 0.00217014 304.844 
731 1 0.0397943 -0.0039422 0.00358553 312.651 
571 1 0.0429846 -0.00447594 0.00270542 303.11 
971 1 0.0428698 -0.00304037 0.00409671 337.902 
708 1 0.0447234 -0.00389631 0.00371446 304.751 
886 1 0.0466457 -0.00466918 0.00373368 302.748 
1181 1 0.0478672 -0.0031672 0.00257964 315.897 
7 1 0.000999995 -0.00224926 0.00351349 309.62 
194 1 0.00444504 -0.00241389 0.00266259 312.709 
824 1 0.00663811 -0.002199 0.00250483 314.351 
850 1 0.00789365 -0.0024833 0.00403545 324.551 
520 1 0.00878403 -0.00181657 0.00236061 331.343 
1122 1 0.011365 -0.00295271 0.00246086 327.33 
1071 1 0.0110248 -0.00157098 0.0038662 381.693 
1326 1 0.0128951 -0.00189142 0.00319063 322 
592 1 0.0149515 -0.00128289 0.00280888 332.136 
251 1 0.0169801 -0.001426 0.00247444 315.983 
702 1 0.0161354 -0.00228746 0.00406953 309.328 
1149 1 0.0180125 -0.00280077 0.00358607 342.326 
379 1 0.0189674 -0.00158635 0.00231587 317.286 
1284 1 0.0210353 -0.00176092 0.00269408 328.7 
794 1 0.0227832 -0.00284188 0.00238658 312.802 
448 1 0.0225297 -0.0013417 0.0039554 354.719 
1114 1 0.0242126 -0.00239472 0.00371208 338.85 
1335 1 0.0270199 -0.00120829 0.00282432 348.679 
687 1 0.0291767 -0.00168212 0.00229324 328.158 
753 1 0.0287052 -0.00236798 0.00411184 379.367 
628 1 0.0312942 -0.00143576 0.00223057 308.36 
937 1 0.0323336 -0.00265285 0.00342984 334.619 
637 1 0.0355118 -0.00215918 0.00284971 325.144 
998 1 0.0373732 -0.001489 0.00314284 316.459 
128 1 0.0393168 -0.00208354 0.00264561 312.46 
871 1 0.0411969 -0.00260098 0.00308983 303.438 
992 1 0.0426257 -0.0012092 0.00294356 312.526 
587 1 0.0438385 -0.00269671 0.00238109 313.752 
710 1 0.0445866 -0.00189194 0.0040522 344.403 
512 1 0.0461727 -0.00207084 0.00270327 303.107 
21 1 0.0478069 -0.00170423 0.00394202 370.264 
1170 1 0.0495766 -0.00258666 0.00344025 316.535 
822 1 0.000999987 -0.000473589 0.00259319 307.525 
109 1 0.0024542 -0.000832872 0.00391839 330.87 
528 1 0.00578114 -0.000842966 0.00394346 405.479 
242 1 0.00411277 -0.000225061 0.00285187 315.02 
144 1 0.00763281 -0.000245222 0.00300108 335.603 
1192 1 0.00914761 -0.000927255 0.00411472 384.849 
419 1 0.00945075 0.000512878 0.0026542 343.573 
412 1 0.0112445 -0.000305026 0.0023172 308.695 
1076 1 0.0126516 8.4254e-06 0.00379379 354.369 
62 1 0.0149188 0.000712616 0.0026792 348.531 
296 1 0.0169126 0.000567618 0.00261911 347.667 
1125 1 0.0179476 -0.000535511 0.00398153 339.755 
229 1 0.0189022 0.000404401 0.0024965 336.821 
1121 1 0.0207436 0.000143193 0.00323189 348.823 
1269 1 0.0233602 0.000450973 0.00361969 379.69 
182 1 0.0248598 -0.000777839 0.00272881 307.325 
438 1 0.0259157 0.000919027 0.00280466 362.445 
1194 1 0.0286065 0.000232978 0.00237905 336.422 
896 1 0.0318096 -0.000830484 0.00406577 377.716 
1030 1 0.0305119 0.000242498 0.00298658 338.174 
334 1 0.033172 -0.000725086 0.00260031 302.911 
19 1 0.0356439 -0.00022773 0.00234772 339.559 
65 1 0.0377027 0.000305464 0.00232351 328.906 
1120 1 0.0390534 -0.000489579 0.00382456 350.829 
1079 1 0.0395763 0.00096548 0.00255594 329.212 
1268 1 0.0407291 -0.00066785 0.0026123 321.481 
267 1 0.0425149 0.000767667 0.00266122 328.244 
307 1 0.0436758 2.84906e-05 0.00411238 397.746 
640 1 0.0445885 -0.000664407 0.00247324 332.859 
1235 1 0.0459945 0.000434349 0.00337651 333.335 
559 1 0.0474154 -0.000541395 0.0023621 308.585 
70 1 0.0493083 -0.000516063 0.00336394 333.859 
777 1 0.000999995 0.00110825 0.00381703 311.606 
471 1 0.000999996 0.00219067 0.00213525 309.891 
1043 1 0.00259936 0.0010612 0.00261711 319.307 
1165 1 0.0043985 0.00192522 0.00248846 342.719 
1342 1 0.00615918 0.00122393 0.00312734 343.662 
948 1 0.00824989 0.00209418 0.00238418 327.102 
73 1 0.00954494 0.00198347 0.0040064 378.214 
505 1 0.0109079 0.00187772 0.00253671 315.288 
921 1 0.0128894 0.00162969 0.00264707 316.627 
698 1 0.0148031 0.00263621 0.00214408 348.107 
542 1 0.0161275 0.00214771 0.00356089 356.987 
202 1 0.0179548 0.00149021 0.00405531 417.325 
1312 1 0.0198177 0.00190183 0.00345535 386.181 
1100 1 0.0218928 0.00199069 0.0026682 361.55 
902 1 0.024654 0.0020511 0.00386609 405.303 
715 1 0.0275718 0.00203697 0.00271739 366.188 
209 1 0.0292263 0.00157551 0.00374179 379.251 
68 1 0.030945 0.00242399 0.00317064 342.013 
189 1 0.0323332 0.0010903 0.00262827 316.299 
122 1 0.0331342 0.00221269 0.00408336 342.343 
1112 1 0.0343195 0.0011875 0.00284081 321.131 
1259 1 0.0371473 0.00244187 0.00221728 360.808 
570 1 0.0366618 0.0011466 0.00380976 384.474 
1070 1 0.0392343 0.0028996 0.00293307 323.181 