ITEM: TIMESTEP
22665000
ITEM: NUMBER OF ATOMS
5000
ITEM: BOX BOUNDS mm mm mm
0 0.1
-0.015 0.015
0 0.3
ITEM: ATOMS id type x y z f_Temp[0] 
977 1 0.00102825 -0.014 0.000999993 300.155 
581 1 0.0028054 -0.013082 0.000999998 300 
980 1 0.00536401 -0.0139934 0.000999992 300.258 
1252 1 0.00736683 -0.0139977 0.000999998 300 
648 1 0.00943464 -0.014 0.000999991 300.508 
1049 1 0.0114353 -0.0139954 0.000999998 300 
585 1 0.0133901 -0.0135649 0.000999998 300 
453 1 0.0153493 -0.0139698 0.000999997 300.024 
812 1 0.0173493 -0.0139999 0.000999993 300.458 
1111 1 0.0195007 -0.0134438 0.000999984 300.555 
713 1 0.021422 -0.014 0.000999994 300.134 
1065 1 0.0234048 -0.014 0.00126756 300.067 
82 1 0.0265155 -0.0139931 0.000999994 300.332 
383 1 0.0285156 -0.014 0.000999992 300.291 
930 1 0.030521 -0.014 0.000999997 300.405 
936 1 0.0322405 -0.014 0.00202133 300.572 
1185 1 0.0365621 -0.014 0.000999997 300.136 
961 1 0.0387276 -0.014 0.00158109 300.66 
397 1 0.0415067 -0.014 0.000999998 300.276 
434 1 0.0453634 -0.0139995 0.000999989 300.122 
845 1 0.0473634 -0.013996 0.000999993 300.054 
69 1 0.0493634 -0.014 0.000999998 300 
775 1 0.00100002 -0.0113754 0.000999998 300 
100 1 0.0029795 -0.0110896 0.000999992 300.889 
914 1 0.00557519 -0.0112015 0.00100005 300.925 
80 1 0.00757517 -0.0111953 0.000999991 301.799 
451 1 0.00998402 -0.0120769 0.000999996 301.238 
796 1 0.00840292 -0.0126653 0.00207425 300.447 
693 1 0.0116631 -0.012314 0.00206038 302.306 
1317 1 0.0131863 -0.0115688 0.000999987 302.352 
915 1 0.0160944 -0.0121103 0.000999994 300.554 
410 1 0.0190455 -0.011496 0.000999996 300.553 
830 1 0.0224371 -0.0122702 0.000999998 300.006 
320 1 0.0247898 -0.0125822 0.000999992 300.601 
112 1 0.0274126 -0.0122056 0.000999996 300.788 
75 1 0.0305709 -0.0120006 0.000999993 301.561 
44 1 0.0325472 -0.012308 0.000999993 300.908 
903 1 0.0346614 -0.0124727 0.000999987 301.641 
501 1 0.0399655 -0.0125406 0.000999994 301.479 
606 1 0.0381813 -0.0121244 0.00200969 302.483 
895 1 0.0424953 -0.0112468 0.000999991 302.05 
98 1 0.0440827 -0.0124633 0.000999998 300.508 
591 1 0.0463641 -0.0121884 0.000999998 300 
260 1 0.0483399 -0.0113954 0.000999988 301.876 
341 1 0.00236835 -0.00912792 0.000999989 301.629 
781 1 0.00434315 -0.00962605 0.00099999 302.478 
163 1 0.00630249 -0.00922482 0.000999992 303.63 
180 1 0.00969329 -0.0104144 0.00207298 305.843 
657 1 0.0113778 -0.0106424 0.000999994 301.158 
479 1 0.0130888 -0.00957115 0.00099999 304.15 
1334 1 0.0156328 -0.00933789 0.000999989 305.335 
236 1 0.0173021 -0.0105161 0.00100003 302.381 
463 1 0.0189969 -0.0094543 0.000999987 304.847 
1058 1 0.020961 -0.0109208 0.000999997 300.662 
214 1 0.021988 -0.00920459 0.000999991 305.073 
48 1 0.0236592 -0.010687 0.000999996 301.299 
1001 1 0.0256579 -0.0107646 0.000999989 301.581 
157 1 0.0275721 -0.0101849 0.00099999 305.454 
154 1 0.0295703 -0.010269 0.000999998 305.792 
849 1 0.0316898 -0.0101273 0.000999998 300.491 
986 1 0.0337356 -0.0106994 0.000999992 304.044 
352 1 0.0353603 -0.00937906 0.000999998 305.198 
391 1 0.037078 -0.0107965 0.00099999 303.985 
828 1 0.0380495 -0.00904828 0.000999991 309.734 
1302 1 0.0391669 -0.010707 0.000999988 303.441 
1153 1 0.0410033 -0.00991491 0.000999992 304.996 
1029 1 0.0435086 -0.00935559 0.000999995 304.478 
734 1 0.0450013 -0.0106867 0.000999997 301.131 
168 1 0.0467898 -0.0104128 0.001852 302.481 
673 1 0.0479253 -0.00900397 0.000999991 304.679 
230 1 0.00208414 -0.00710001 0.000999993 305.361 
962 1 0.00400567 -0.00765473 0.000999989 307.283 
829 1 0.00807393 -0.0082964 0.000999989 309.089 
409 1 0.0100683 -0.00814704 0.00100015 305.079 
524 1 0.0120481 -0.00786324 0.000999994 305.19 
1221 1 0.0140493 -0.00781582 0.000999998 300.24 
1092 1 0.0173393 -0.0086903 0.00181755 313.348 
461 1 0.016624 -0.00701102 0.000999992 305.97 
1062 1 0.0197951 -0.00762048 0.000999986 314.594 
790 1 0.0215614 -0.00748521 0.00192831 326.533 
200 1 0.0233297 -0.00737885 0.000999993 314.619 
602 1 0.0247258 -0.00899514 0.000999997 302.007 
546 1 0.0254076 -0.0074302 0.00204216 305.278 
1240 1 0.0269157 -0.00822994 0.000999998 301.113 
247 1 0.0292594 -0.00829331 0.00099999 312.657 
973 1 0.0315646 -0.00811889 0.00099999 308.001 
1319 1 0.0334732 -0.00871669 0.000999992 307.022 
947 1 0.0365133 -0.00779137 0.00138712 303.491 
238 1 0.0398083 -0.00744564 0.000999998 306.468 
162 1 0.0418495 -0.00748739 0.000999997 301.864 
367 1 0.0444121 -0.00769988 0.0016651 304.945 
1274 1 0.0459344 -0.00881346 0.000999986 306.36 
1074 1 0.0498523 -0.00837857 0.000999998 300 
28 1 0.0010002 -0.00541922 0.000999994 303.74 
956 1 0.00299517 -0.00525891 0.000999998 300 
134 1 0.00500411 -0.00536152 0.000999994 310.941 
825 1 0.00684751 -0.00671657 0.000999995 310.059 
976 1 0.00894151 -0.00649438 0.000999994 316.748 
169 1 0.0109715 -0.00601028 0.000999993 313.147 
556 1 0.0129962 -0.00610228 0.000999995 314.663 
421 1 0.0149261 -0.00609382 0.001525 312.231 
1217 1 0.0184323 -0.00615665 0.000999998 309.317 
1325 1 0.0210613 -0.0057384 0.000999998 300 
496 1 0.0230199 -0.00528279 0.000999996 318.903 
639 1 0.024956 -0.005784 0.00099999 318.642 
1151 1 0.0269057 -0.0062297 0.000999984 320.277 
443 1 0.028977 -0.00543617 0.000999998 300 
1231 1 0.0310305 -0.00545212 0.000999998 300 
146 1 0.0303193 -0.00698151 0.00207498 324.011 
1290 1 0.0330366 -0.00676492 0.000999997 307.756 
1075 1 0.0353259 -0.00621403 0.000999995 307.01 
618 1 0.038025 -0.00654034 0.000999998 301.435 
83 1 0.0399098 -0.00544822 0.000999985 321.562 
974 1 0.0424605 -0.00544572 0.000999991 317.482 
1289 1 0.0449382 -0.00588859 0.000999992 312.716 
772 1 0.0466402 -0.00609637 0.0020296 321.414 
530 1 0.0482999 -0.00652692 0.000999994 307.715 
283 1 0.00371044 -0.00338739 0.000999998 300 
750 1 0.00569451 -0.0031185 0.000999998 300 
234 1 0.00689912 -0.00471724 0.000999994 318.095 
1025 1 0.00808703 -0.00310816 0.000999998 300 
139 1 0.00957556 -0.00451691 0.000999998 300 
791 1 0.0119528 -0.0041857 0.000999985 329.104 
402 1 0.0153626 -0.004214 0.000999994 317.296 
1087 1 0.017357 -0.00447035 0.000999991 319.581 
519 1 0.0193899 -0.00431182 0.000999993 321.872 
275 1 0.0216938 -0.00378558 0.000999994 315.6 
142 1 0.0249492 -0.00393316 0.00175782 326.012 
90 1 0.0267754 -0.00423396 0.000999996 316.264 
492 1 0.032699 -0.00434362 0.000999993 317.528 
749 1 0.0350091 -0.00423928 0.000999994 318.58 
1187 1 0.0369358 -0.00484893 0.000999997 307.935 
175 1 0.0402006 -0.00358298 0.00166048 337.126 
1050 1 0.0420853 -0.00347573 0.000999995 313.9 
846 1 0.0439728 -0.00413701 0.000999988 320.106 
424 1 0.0456873 -0.00431841 0.00201368 321.286 
1243 1 0.0474114 -0.00430605 0.000999998 317.372 
3721 1 0.0493439 -0.00482097 0.000999988 313.414 
77 1 0.00106563 -0.00208336 0.000999998 300 
37 1 0.00269634 -0.00135299 0.00200246 328.653 
1108 1 0.00442621 -0.00130241 0.000999983 327.402 
385 1 0.0074663 -0.0011745 0.000999988 333.465 
89 1 0.0100507 -0.00255577 0.000999998 300 
318 1 0.0118586 -0.00167902 0.000999998 316.203 
32 1 0.0138228 -0.00205531 0.000999998 312.037 
964 1 0.0158217 -0.00212183 0.000999998 310.321 
1180 1 0.0177825 -0.00251614 0.000999993 318.691 
885 1 0.0201852 -0.00247261 0.000999997 321.586 
264 1 0.0220832 -0.00158202 0.000999986 334.004 
258 1 0.0241116 -0.00228266 0.001 333.123 
291 1 0.0258098 -0.00110755 0.000999998 314.151 
1052 1 0.0282802 -0.00291658 0.000999992 333.468 
486 1 0.0304223 -0.00274938 0.000999993 325.279 
401 1 0.0328101 -0.00186878 0.000999996 315.719 
91 1 0.0348112 -0.00186302 0.00099999 324.504 
1248 1 0.0364864 -0.00291987 0.00127711 315.271 
1196 1 0.0384654 -0.00283657 0.000999995 316.937 
351 1 0.0409167 -0.00183629 0.000999995 325.249 
1003 1 0.0429074 -0.00158962 0.000999997 317.069 
545 1 0.0452833 -0.00262575 0.000999997 322.56 
31 1 0.0472197 -0.00212533 0.000999991 319.608 
1027 1 0.0491105 -0.00283465 0.000999996 307.136 
620 1 0.00150677 0.000624044 0.000999984 318.573 
817 1 0.00370939 0.0005697 0.000999998 300 
127 1 0.00591125 -0.000406584 0.00199601 359.57 
306 1 0.00756563 0.000823028 0.000999994 321.826 
167 1 0.00960301 -0.000600847 0.000999992 338.626 
721 1 0.0132144 -0.000384327 0.00191523 359.474 
33 1 0.0157879 -0.000111079 0.000999998 300 
522 1 0.017805 -0.000352849 0.000999998 300 
1330 1 0.0201725 -0.000472027 0.000999998 300 
624 1 0.0239822 -0.000286865 0.000999988 337.462 
799 1 0.0222849 0.000162791 0.00195755 367.18 
644 1 0.0278053 -0.000973797 0.000999988 343.224 
181 1 0.0267602 0.00074599 0.000999994 347.653 
289 1 0.0300684 -0.000444246 0.000999989 332.478 
899 1 0.0320249 -2.93762e-05 0.000999997 317.003 
184 1 0.0341146 1.68598e-05 0.000999998 303.292 
1191 1 0.0369447 -0.000988287 0.000999998 310.139 
625 1 0.0395948 -0.000290988 0.000999998 318.059 
250 1 0.0417007 7.81933e-06 0.000999996 331.578 
1247 1 0.0440458 0.000574496 0.000999991 331.871 
518 1 0.045939 -0.000588995 0.000999992 340.331 
198 1 0.0476838 0.000898674 0.000999998 300 
527 1 0.0488465 -0.000852146 0.000999995 317.786 
904 1 0.0494914 0.00083641 0.00185608 347.633 
305 1 0.00264916 0.00226565 0.00100002 328.425 
408 1 0.00557638 0.00129512 0.000999993 342.293 
1037 1 0.00643218 0.00282586 0.00196146 372.213 
1054 1 0.00968458 0.00225442 0.000999996 322.97 
310 1 0.0118963 0.00105148 0.000999998 306.338 
364 1 0.0129022 0.00293552 0.000999998 312.299 
392 1 0.0139525 0.00123354 0.000999991 335.74 
430 1 0.0169059 0.00174167 0.000999993 340.081 
723 1 0.0189958 0.00172791 0.000999992 330.847 
279 1 0.0209923 0.00135248 0.000999998 300 
1099 1 0.0248586 0.00295496 0.000999993 343.22 
1044 1 0.0241312 0.00141222 0.00204443 380.985 
1226 1 0.0268526 0.0027672 0.000999989 360.279 
474 1 0.0285332 0.00167963 0.000999992 338.634 
1175 1 0.0304799 0.00146998 0.0014079 347.209 
280 1 0.033244 0.0018183 0.000999998 311.382 
476 1 0.0350733 0.0024588 0.0014934 341.036 
735 1 0.0363974 0.00104339 0.000999985 349.195 
311 1 0.0384834 0.00158561 0.000999987 351.568 
562 1 0.0405308 0.00178272 0.000999989 345.795 
197 1 0.0425283 0.0018813 0.000999995 330.334 
615 1 0.0443907 0.00261031 0.000999986 345.05 
568 1 0.0458138 0.00132471 0.00156747 372.08 
1197 1 0.0497082 0.00263088 0.000999994 345.36 
366 1 0.00100063 0.00383724 0.000999997 307.289 
920 1 0.0043839 0.00326097 0.00099999 332.834 
1036 1 0.00644525 0.00457953 0.000999989 334.545 
314 1 0.00844576 0.00420012 0.000999998 300 
1224 1 0.0104826 0.00408961 0.000999992 337.787 
1124 1 0.0123036 0.0049164 0.000999992 344.959 
1286 1 0.0152051 0.00422662 0.000999983 348.427 
972 1 0.0186014 0.00369399 0.000999996 323.322 
493 1 0.0202753 0.0030119 0.00185588 376.269 
939 1 0.02075 0.00475605 0.000999988 354.264 
923 1 0.0220823 0.00307749 0.000999993 340.408 
241 1 0.0235323 0.00445514 0.00099999 353.16 
322 1 0.0254857 0.00479463 0.00147149 358.104 
485 1 0.0274261 0.00468323 0.000999995 342.589 
814 1 0.0294225 0.00456453 0.000999989 349.334 
1229 1 0.031651 0.00303909 0.000999991 341.957 
879 1 0.0329345 0.00472734 0.000999998 300 
1019 1 0.0354244 0.00436559 0.000999992 342.018 
26 1 0.0374497 0.00408388 0.000999998 300 
946 1 0.0393305 0.00340354 0.000999998 316.064 
1314 1 0.041438 0.0035651 0.000999997 335.56 
300 1 0.0429164 0.00497018 0.000999991 343.454 
757 1 0.0450353 0.00455745 0.000999996 332.887 
121 1 0.0464429 0.00313648 0.000999998 300 
2899 1 0.0491937 0.0045982 0.000999981 351.415 
235 1 0.0481355 0.00327053 0.00205706 381.591 
852 1 0.00147344 0.00578054 0.000999994 306.91 
143 1 0.00359123 0.00509717 0.000999997 328.228 
712 1 0.00611097 0.00655139 0.000999995 331.09 
857 1 0.00765647 0.00583318 0.0020467 354.537 
156 1 0.0101026 0.00606704 0.000999991 339.897 
733 1 0.0125017 0.00690655 0.000999988 348.884 
761 1 0.0142908 0.00601081 0.000999998 300 
1306 1 0.0170989 0.00501409 0.000999991 334.889 
1285 1 0.0165012 0.00696598 0.000999998 308.289 
237 1 0.0189814 0.0056897 0.000999997 329.805 
621 1 0.0222928 0.00602882 0.00099999 342.135 
1134 1 0.0242725 0.00631312 0.000999989 344.934 
1154 1 0.028986 0.0067722 0.000999991 347.626 
332 1 0.0310772 0.00569305 0.000999998 300 
404 1 0.0326452 0.00696578 0.000999994 336.096 
1299 1 0.0344553 0.0061151 0.000999994 335.183 
1088 1 0.0366774 0.00592881 0.000999988 363.629 
54 1 0.0390828 0.00538836 0.000999994 335.382 
176 1 0.0410339 0.00582837 0.000999992 336.746 
544 1 0.0455137 0.00651532 0.000999998 300 
469 1 0.0472716 0.00515104 0.000999995 330.541 
14 1 0.0486979 0.00655309 0.000999996 339.031 
741 1 0.000999996 0.00772368 0.00100003 310.852 
187 1 0.00278473 0.00862649 0.000999991 321.665 
540 1 0.00401709 0.00705129 0.000999987 326.286 
193 1 0.00477814 0.00895649 0.000999998 300 
253 1 0.0068207 0.00842122 0.000999996 327.194 
959 1 0.00850773 0.00730957 0.000999992 336.07 
328 1 0.0114071 0.00884933 0.000999998 300 
718 1 0.0132987 0.00844915 0.0019926 351.927 
978 1 0.0151909 0.00848408 0.000999991 338.662 
488 1 0.0171399 0.00893312 0.000999991 331.428 
847 1 0.0186891 0.00766823 0.000999992 334.042 
473 1 0.0206949 0.00740117 0.000999998 300 
854 1 0.0226507 0.00799697 0.000999991 348.199 
207 1 0.026375 0.00739615 0.000999998 300.08 
513 1 0.0293352 0.00896057 0.00151575 331.131 
651 1 0.0307733 0.00766986 0.000999989 335.8 
1298 1 0.0326488 0.00875108 0.00190147 334.849 
1244 1 0.0353883 0.00770327 0.00177925 368.948 
611 1 0.0372176 0.00791835 0.000999986 342.471 
730 1 0.0393606 0.00754568 0.000999997 330.914 
835 1 0.0417267 0.00744182 0.00195747 381.586 
110 1 0.0436805 0.00766014 0.000999996 332.736 
428 1 0.0469194 0.00795518 0.000999997 311.793 
174 1 0.0497579 0.00825521 0.000999987 350.182 
205 1 0.00100021 0.00991911 0.000999985 311.032 
177 1 0.00272024 0.0104073 0.001908 321.704 
674 1 0.00638342 0.0103728 0.000999989 325.725 
79 1 0.00942032 0.00908922 0.000999998 335.584 
1320 1 0.0104938 0.0103921 0.00207241 348.708 
779 1 0.012119 0.0108494 0.00100017 332.281 
292 1 0.0139551 0.0100566 0.000999991 333 
11 1 0.015904 0.0105056 0.00099999 327.386 
50 1 0.0188973 0.00950435 0.00176508 324.42 
1042 1 0.0207436 0.0094288 0.000999998 307.356 
694 1 0.0226224 0.0101149 0.000999989 333.977 
147 1 0.0240051 0.00907428 0.00200252 363.7 
983 1 0.0256274 0.00967679 0.000999989 332.014 
798 1 0.0278229 0.0101635 0.000999996 314.011 
966 1 0.0311269 0.00968438 0.000999995 319.303 
1186 1 0.033815 0.0102344 0.000999995 325.403 
1091 1 0.035782 0.00950263 0.000999993 338.673 
93 1 0.0382867 0.00960858 0.000999998 334.294 
1160 1 0.0399631 0.0106994 0.000999988 320.344 
575 1 0.0411762 0.00910919 0.00099999 337.415 
985 1 0.04312 0.00957997 0.000999996 320.827 
359 1 0.0453271 0.00941899 0.000999995 328.649 
969 1 0.0472618 0.00992566 0.000999998 315.285 
78 1 0.0492059 0.0103951 0.000999992 317.15 
363 1 0.000999994 0.0125472 0.000999995 303.697 
811 1 0.00296408 0.0122886 0.00127469 311.673 
743 1 0.00449491 0.0110312 0.000999993 313.175 
1251 1 0.00600936 0.0123375 0.000999995 311.045 
72 1 0.009055 0.0112752 0.000999994 321.774 
1313 1 0.0110293 0.0125265 0.00099999 317.956 
654 1 0.0139151 0.0120596 0.000999989 323.664 
271 1 0.0178307 0.0110466 0.000999998 300 
15 1 0.0191506 0.0123316 0.00178965 319.393 
215 1 0.0208644 0.0116686 0.00099999 319.137 
420 1 0.0226323 0.0118976 0.00190669 325.697 
449 1 0.0244554 0.012149 0.000999998 309.761 
39 1 0.0263672 0.0115349 0.000999992 315.887 
188 1 0.0295985 0.0111181 0.000999991 323.562 
425 1 0.028129 0.0124814 0.000999992 308.146 
1095 1 0.0312193 0.01229 0.000999998 300.001 
1227 1 0.033219 0.0122468 0.000999995 314.329 
119 1 0.035345 0.0122922 0.000999998 300 
650 1 0.0369685 0.0111127 0.000999989 326.875 
1138 1 0.0386186 0.0122428 0.000999992 319.88 
979 1 0.0405124 0.0124274 0.00184388 330.567 
316 1 0.042418 0.0117033 0.000999998 309.51 
1297 1 0.0443447 0.0111611 0.00099999 326.078 
1206 1 0.046545 0.0118446 0.000999993 321.971 
380 1 0.0484365 0.0121497 0.00157368 314.073 
347 1 0.00209295 0.014 0.00183359 303.84 
309 1 0.00396196 0.014 0.000999998 304.974 
1130 1 0.00566062 0.014 0.00205571 311.695 
807 1 0.00735927 0.014 0.000999991 307.541 
114 1 0.00931258 0.0135525 0.000999993 309.17 
240 1 0.0123816 0.014 0.000999997 307.422 
672 1 0.0144052 0.014 0.000999998 304.526 
729 1 0.0161846 0.014 0.00191321 314.244 
758 1 0.0179409 0.0137147 0.000999996 309.334 
1038 1 0.0199206 0.014 0.000999993 307.864 
81 1 0.0217812 0.0139926 0.00173331 313.522 
676 1 0.0236419 0.0139761 0.000999994 307.316 
534 1 0.026476 0.013782 0.000999998 300 
526 1 0.0299137 0.014 0.000999997 303.287 
101 1 0.0322566 0.014 0.000999994 307.913 
1304 1 0.0342566 0.014 0.00099999 309.737 
1171 1 0.0370555 0.0139159 0.000999998 300 
442 1 0.0396097 0.014 0.000999989 315.567 
348 1 0.0423165 0.0137138 0.000999998 300 
626 1 0.0443208 0.014 0.000999994 308.18 
935 1 0.0466455 0.0139515 0.000999998 300 
766 1 0.0489339 0.014 0.000999995 308.926 
728 1 0.00392052 -0.014 0.00238429 300.475 
1249 1 0.00256444 -0.0132265 0.00363435 302.545 
929 1 0.00450257 -0.0131416 0.00412055 303.209 
1137 1 0.00634469 -0.014 0.00274303 301.37 
1097 1 0.0078871 -0.0133954 0.0038635 308.721 
598 1 0.0095839 -0.014 0.0029944 302.539 
1056 1 0.0115791 -0.014 0.0031329 302.103 
747 1 0.0135702 -0.014 0.00294461 300.401 
1337 1 0.0162623 -0.0135725 0.00273454 300.182 
789 1 0.0184969 -0.014 0.00263796 302.528 
894 1 0.0203583 -0.014 0.00336963 301.719 
507 1 0.0220847 -0.0132262 0.00272104 300.846 
170 1 0.0250702 -0.014 0.00238244 300.669 
993 1 0.0240141 -0.0139722 0.00408059 304.736 
1048 1 0.0275175 -0.0134232 0.00263438 301.491 
1267 1 0.0262053 -0.014 0.00402915 300.226 
43 1 0.0295 -0.014 0.00274091 300.657 
1169 1 0.0312288 -0.014 0.00374657 302.41 
1008 1 0.0331407 -0.0134146 0.0037886 300.782 
1168 1 0.0342309 -0.014 0.00221734 300.527 
288 1 0.0350354 -0.014 0.00404837 300.937 
158 1 0.0375146 -0.014 0.00317125 300.212 
47 1 0.0406544 -0.0133617 0.00269294 301.59 
274 1 0.0425983 -0.014 0.00386091 300.491 
652 1 0.0441287 -0.014 0.00257328 300.25 
689 1 0.0463276 -0.014 0.00275222 300.249 
1184 1 0.0483371 -0.014 0.00274697 300.257 
1026 1 0.000999991 -0.0126891 0.00251021 300.935 
261 1 0.000999995 -0.011326 0.00397369 304.85 
1343 1 0.00301409 -0.0113076 0.00397475 310.96 
87 1 0.00423913 -0.0120312 0.0022356 300.377 
355 1 0.00504244 -0.0112267 0.00391614 311.268 
1208 1 0.00656471 -0.0120234 0.00253146 300.477 
22 1 0.00843274 -0.011079 0.00371936 312.247 
378 1 0.0101037 -0.0120919 0.00329275 302.716 
1220 1 0.0128444 -0.012285 0.00367402 301.582 
4 1 0.0145348 -0.0124065 0.00221646 300.579 
336 1 0.015519 -0.0118383 0.00386221 300.709 
622 1 0.0176585 -0.0122282 0.00224094 300.502 
1077 1 0.0174136 -0.0112732 0.00416425 303.062 
736 1 0.0189909 -0.012447 0.00379728 314.56 
681 1 0.0203697 -0.0122626 0.00236006 300.223 
859 1 0.022665 -0.0115618 0.00410205 309.08 
806 1 0.0239103 -0.0124121 0.00278814 303.511 
1152 1 0.0260548 -0.0120702 0.00246214 303.522 
999 1 0.0279366 -0.0119296 0.00389669 302.767 
1316 1 0.0289735 -0.011821 0.0021899 302.715 
797 1 0.029953 -0.0124734 0.00395094 302.751 
1264 1 0.0315301 -0.0122716 0.00273395 300.773 
20 1 0.0336445 -0.0118753 0.00261523 305.594 
1336 1 0.0350723 -0.0118548 0.00401562 303.543 
1126 1 0.0354465 -0.0110244 0.00213404 304.589 
233 1 0.0359508 -0.0129117 0.00256269 300.726 
450 1 0.0369507 -0.0113847 0.00340195 303.603 
160 1 0.0392319 -0.0123737 0.00369314 306.857 
724 1 0.0409925 -0.0114286 0.00230715 306.104 
876 1 0.0419024 -0.0120667 0.00396995 304.786 
872 1 0.0425493 -0.0128203 0.00223337 300.48 
704 1 0.0449215 -0.0120423 0.00276611 300.699 
945 1 0.0469145 -0.0120959 0.00292509 301.28 
221 1 0.0489219 -0.0120878 0.00278378 301.647 
1245 1 0.000999993 -0.00928449 0.00395345 310.126 
744 1 0.00199872 -0.0103191 0.00256345 304.448 
635 1 0.00390569 -0.00984746 0.00293895 308.811 
136 1 0.00590224 -0.00974057 0.00289044 308.921 
418 1 0.00782929 -0.00974667 0.00235529 307.741 
1057 1 0.0112144 -0.00913699 0.00230648 304.74 
259 1 0.0102857 -0.010154 0.00396539 316.076 
1318 1 0.0125372 -0.0106075 0.00262928 311.155 
725 1 0.0121185 -0.00937428 0.00414712 343.987 
1205 1 0.0144017 -0.00990101 0.00247217 316.554 
422 1 0.0163222 -0.0103914 0.00273907 303.705 
924 1 0.0183927 -0.0103733 0.00267041 308.306 
395 1 0.0200087 -0.0107212 0.00379621 305.472 
1195 1 0.0205045 -0.00947314 0.00231414 302.621 
500 1 0.0225748 -0.0102262 0.0026161 305.889 
213 1 0.0246572 -0.0105577 0.00272838 302.975 
909 1 0.0263344 -0.0095128 0.00242 311.499 
740 1 0.0265318 -0.0105259 0.00413308 315.041 
521 1 0.0284821 -0.00929895 0.00254496 318.175 
997 1 0.0297075 -0.0105331 0.00353251 312.925 
445 1 0.0304806 -0.00911342 0.00235493 315.811 
1261 1 0.0322714 -0.0104207 0.00289093 302.803 
529 1 0.0340991 -0.00964259 0.00265859 316.332 
277 1 0.0355513 -0.00991304 0.00402491 317.198 
124 1 0.0367214 -0.00947922 0.002462 316.749 
960 1 0.0385169 -0.0102744 0.00284128 309.655 
510 1 0.0401572 -0.0106169 0.00393302 334.101 
533 1 0.0434256 -0.0107171 0.00268929 304.961 
552 1 0.044975 -0.00945352 0.0026339 314.529 
697 1 0.0458235 -0.0106606 0.00398403 311.224 
440 1 0.0475928 -0.00981798 0.00358448 308.646 
1021 1 0.0490805 -0.0100354 0.00226562 308.596 
95 1 0.0495155 -0.0105984 0.00413479 316.186 
564 1 0.00099999 -0.00828587 0.00219099 304.275 
1178 1 0.00294431 -0.00812116 0.0026297 303.372 
1005 1 0.00493772 -0.00799531 0.00273643 322.707 
284 1 0.00642498 -0.00807971 0.00407095 328.326 
27 1 0.00807073 -0.00718883 0.00266529 333.465 
344 1 0.00938651 -0.00866083 0.00298457 316.787 
455 1 0.0105623 -0.00708018 0.00263943 330.846 
636 1 0.0124312 -0.00770239 0.00298568 317.619 
1006 1 0.0139625 -0.00858986 0.00391714 346.226 
457 1 0.0154895 -0.00790228 0.00238508 301.682 
719 1 0.0174886 -0.00898444 0.00379015 340.13 
970 1 0.0173748 -0.00710733 0.00303941 315.916 
179 1 0.019032 -0.00819104 0.00275844 326.963 
138 1 0.0218439 -0.00861733 0.00355266 325.76 
818 1 0.0203462 -0.00738063 0.00402971 385.282 
246 1 0.0236322 -0.00852863 0.00260825 308.076 
52 1 0.0251761 -0.00874884 0.00386041 333.897 
788 1 0.0270982 -0.00816529 0.00368523 326.685 
988 1 0.028116 -0.00722336 0.00224411 334.013 
490 1 0.0294674 -0.00792801 0.00361716 340.437 
84 1 0.031579 -0.00882185 0.0040007 356.486 
574 1 0.0326897 -0.00787248 0.00263506 316.845 
1270 1 0.0346324 -0.00763772 0.00222151 313.507 
890 1 0.0361877 -0.00783246 0.00346367 340.589 
51 1 0.0380266 -0.00798128 0.00269142 335.894 
631 1 0.0399048 -0.00892272 0.00234495 304.56 
96 1 0.0393912 -0.00787195 0.00414942 378.126 
511 1 0.0410111 -0.00732224 0.00280826 310.68 
466 1 0.041122 -0.00887299 0.00410041 370.724 
1303 1 0.0421003 -0.00893786 0.00235721 320.745 
958 1 0.0436162 -0.00824038 0.00345969 343.99 
801 1 0.0466159 -0.00823817 0.00279014 319.255 
12 1 0.0485517 -0.00783185 0.00249456 317.2 
1322 1 0.00166231 -0.00652449 0.00286836 317.507 
1341 1 0.00396419 -0.00627271 0.00244508 318.33 
558 1 0.00510905 -0.00651309 0.00406821 374.877 
1255 1 0.00617585 -0.0056989 0.0025853 329.69 
56 1 0.00920399 -0.00554256 0.00273928 351.62 
1328 1 0.0124008 -0.00589791 0.00386145 399.607 
981 1 0.0141383 -0.00669754 0.00326137 326.307 
63 1 0.016488 -0.00538171 0.00255375 334.896 
942 1 0.0197866 -0.00626282 0.00246853 341.378 
1115 1 0.0187325 -0.00616465 0.0041654 374.377 
394 1 0.0204476 -0.00512481 0.00397452 342.22 
433 1 0.0221624 -0.00664013 0.00363846 392.909 
1004 1 0.0238057 -0.00623755 0.0025719 345.755 
957 1 0.0256907 -0.00562412 0.0028533 321.282 
436 1 0.0276169 -0.00518118 0.0025475 358.512 
769 1 0.0283152 -0.00634638 0.0040305 409.649 
141 1 0.0300155 -0.00540323 0.00326521 360.013 
59 1 0.0319484 -0.00601689 0.00271977 330.31 
104 1 0.0339034 -0.00541545 0.00219479 324.985 
489 1 0.0353605 -0.00612222 0.00408883 363.433 
1166 1 0.0366481 -0.00613693 0.00250276 310.673 
58 1 0.0378524 -0.00653306 0.00405974 379.984 
593 1 0.0392466 -0.00639765 0.00263055 328.965 
897 1 0.041185 -0.00533196 0.00253628 355.391 
1 1 0.0428685 -0.00661072 0.0025736 317.653 
759 1 0.0446992 -0.00576291 0.00298167 339.389 
396 1 0.0462771 -0.0066257 0.00392378 356.296 
1234 1 0.0482705 -0.00512445 0.00266 332.135 
3839 1 0.0498275 -0.00635211 0.00292208 344.583 
539 1 0.000999991 -0.00463755 0.00284091 311.172 
502 1 0.0028692 -0.00496099 0.00348449 316.106 
1090 1 0.00241806 -0.00326162 0.00253127 316.697 
666 1 0.00465322 -0.00440221 0.00271947 320.668 
102 1 0.00755571 -0.00396157 0.00273142 351.068 
263 1 0.00952789 -0.00357948 0.00294262 381.769 
659 1 0.0111076 -0.00492458 0.00267413 329.797 
61 1 0.0132155 -0.00474062 0.00244835 346.049 
701 1 0.014857 -0.00485586 0.003585 369.472 
968 1 0.0144952 -0.00320426 0.00249262 353.636 
949 1 0.0164875 -0.00336364 0.00242094 343.356 
815 1 0.0184075 -0.00482756 0.00266398 341.319 
941 1 0.0219151 -0.00493099 0.00262965 334.786 
793 1 0.0203805 -0.00364863 0.00260586 348.137 
371 1 0.0217992 -0.00348212 0.00400576 409.996 
437 1 0.0237219 -0.00436751 0.00327611 330.5 
232 1 0.0256883 -0.00374046 0.00360621 352.684 
1053 1 0.0274331 -0.0032043 0.00278871 332.38 
1113 1 0.0294168 -0.00367225 0.0024619 368.647 
239 1 0.0285386 -0.00436099 0.00412155 450.355 
125 1 0.0313661 -0.00411936 0.00247416 342.086 
503 1 0.0305202 -0.00320882 0.00406428 418.077 
685 1 0.0338027 -0.00315327 0.00216831 330.146 
1183 1 0.0329001 -0.00455259 0.00369441 338.802 
607 1 0.0355435 -0.00451931 0.00290681 353.78 
670 1 0.0344352 -0.0033252 0.00406679 428.765 
337 1 0.0372277 -0.00348272 0.00320522 362.941 
1129 1 0.0385362 -0.00458563 0.00217014 330.104 
731 1 0.0397943 -0.0039422 0.00358553 402.695 
571 1 0.0429846 -0.00447594 0.00270542 331.155 
971 1 0.0428698 -0.00304037 0.00409671 427.762 
708 1 0.0447234 -0.00389631 0.00371446 350.752 
886 1 0.0466457 -0.00466918 0.00373368 333.571 
1181 1 0.0478672 -0.0031672 0.00257964 353.526 
7 1 0.000999995 -0.00224926 0.00351349 324.903 
194 1 0.00444504 -0.00241389 0.00266259 343.191 
824 1 0.00663811 -0.002199 0.00250483 347.953 
850 1 0.00789364 -0.0024833 0.00403545 363.413 
520 1 0.00878403 -0.00181657 0.00236061 364.02 
1122 1 0.011365 -0.00295271 0.00246086 363.651 
1071 1 0.0110248 -0.00157098 0.0038662 425.989 
1326 1 0.0128951 -0.00189142 0.00319063 369.905 
592 1 0.0149515 -0.00128289 0.00280888 376.433 
251 1 0.0169801 -0.001426 0.00247444 348.167 
702 1 0.0161354 -0.00228746 0.00406953 340.83 
1149 1 0.0180125 -0.00280077 0.00358607 390.973 
379 1 0.0189674 -0.00158635 0.00231587 348.002 
1284 1 0.0210353 -0.00176092 0.00269408 376.991 
794 1 0.0227832 -0.00284188 0.00238658 352.735 
448 1 0.0225297 -0.0013417 0.0039554 419.314 
1114 1 0.0242126 -0.00239472 0.00371208 405.78 
1335 1 0.0270199 -0.00120829 0.00282432 407.317 
687 1 0.0291767 -0.00168212 0.00229324 371.441 
753 1 0.0287052 -0.00236798 0.00411184 447.248 
628 1 0.0312942 -0.00143576 0.00223057 333.265 
937 1 0.0323336 -0.00265285 0.00342984 383.303 
637 1 0.0355118 -0.00215918 0.00284971 370.608 
998 1 0.0373732 -0.001489 0.00314284 359.618 
128 1 0.0393168 -0.00208354 0.00264561 348.214 
871 1 0.0411969 -0.00260098 0.00308983 327.992 
992 1 0.0426257 -0.00120919 0.00294356 351.552 
587 1 0.0438385 -0.00269671 0.00238109 358.483 
710 1 0.0445866 -0.00189194 0.0040522 430.06 
512 1 0.0461727 -0.00207084 0.00270327 321.213 
21 1 0.0478069 -0.00170423 0.00394202 438.049 
1170 1 0.0495766 -0.00258666 0.00344025 380.246 
822 1 0.000999987 -0.000473589 0.00259319 320.215 
109 1 0.0024542 -0.000832872 0.00391839 359.467 
528 1 0.00578114 -0.000842966 0.00394346 422.799 
242 1 0.00411277 -0.000225061 0.00285187 341.566 
144 1 0.00763281 -0.000245222 0.00300108 374.117 
1192 1 0.00914761 -0.000927255 0.00411472 418.45 
419 1 0.00945075 0.000512878 0.0026542 381.205 
412 1 0.0112445 -0.000305026 0.0023172 326.815 
1076 1 0.0126516 8.4254e-06 0.00379379 418.068 
62 1 0.0149188 0.000712616 0.0026792 393.286 
296 1 0.0169126 0.000567618 0.00261911 387.142 
1125 1 0.0179476 -0.000535511 0.00398153 396.746 
229 1 0.0189022 0.000404401 0.0024965 377.353 
1121 1 0.0207436 0.000143193 0.00323189 393.813 
1269 1 0.0233602 0.000450973 0.00361969 434.534 
182 1 0.0248598 -0.000777839 0.00272881 333.992 
438 1 0.0259157 0.000919027 0.00280466 419.032 
1194 1 0.0286065 0.000232978 0.00237905 378.11 
896 1 0.0318096 -0.000830484 0.00406577 433.929 
1030 1 0.0305119 0.000242498 0.00298658 386.104 
334 1 0.033172 -0.000725086 0.00260031 315.573 
19 1 0.0356439 -0.00022773 0.00234772 381.297 
65 1 0.0377027 0.000305464 0.00232351 370.561 
1120 1 0.0390534 -0.000489579 0.00382456 412.251 
1079 1 0.0395763 0.00096548 0.00255594 373.627 
1268 1 0.0407291 -0.00066785 0.0026123 365.504 
267 1 0.0425149 0.000767667 0.00266122 366.829 
307 1 0.0436758 2.84904e-05 0.00411238 448.409 
640 1 0.0445885 -0.000664407 0.00247324 381.58 
1235 1 0.0459945 0.00043435 0.00337651 375.785 
559 1 0.0474154 -0.000541394 0.0023621 330.552 
70 1 0.0493083 -0.000516063 0.00336394 393.126 
777 1 0.000999995 0.00110825 0.00381703 325.026 
471 1 0.000999996 0.00219067 0.00213525 320.151 
1043 1 0.00259936 0.0010612 0.00261711 342.842 
1165 1 0.0043985 0.00192522 0.00248846 367.686 
1342 1 0.00615918 0.00122393 0.00312734 379.465 
948 1 0.00824989 0.00209418 0.00238418 354.99 
73 1 0.00954494 0.00198347 0.0040064 422.692 
505 1 0.0109079 0.00187772 0.00253671 339.612 
921 1 0.0128894 0.00162969 0.00264707 341.699 
698 1 0.0148031 0.00263621 0.00214408 378.944 
542 1 0.0161275 0.00214771 0.00356089 386.329 
202 1 0.0179548 0.00149021 0.00405531 448.883 
1312 1 0.0198177 0.00190183 0.00345535 426.636 
1100 1 0.0218928 0.00199069 0.0026682 399.119 
902 1 0.024654 0.0020511 0.00386609 440.654 
715 1 0.0275718 0.00203697 0.00271739 417.438 
209 1 0.0292263 0.00157551 0.00374179 437.422 
68 1 0.030945 0.00242399 0.00317064 389.874 
189 1 0.0323332 0.0010903 0.00262827 350.166 
122 1 0.0331342 0.00221269 0.00408336 397.088 
1112 1 0.0343195 0.0011875 0.00284081 361.589 
1259 1 0.0371473 0.00244187 0.00221728 395.804 
570 1 0.0366618 0.0011466 0.00380976 445.685 
1070 1 0.0392343 0.0028996 0.00293307 356.6 