ITEM: TIMESTEP
18930000
ITEM: NUMBER OF ATOMS
5000
ITEM: BOX BOUNDS mm mm mm
0 0.1
-0.015 0.015
0 0.3
ITEM: ATOMS id type x y z f_Temp[0] 
977 1 0.00102825 -0.014 0.000999993 300.018 
581 1 0.00280538 -0.013082 0.000999998 300 
980 1 0.00536401 -0.0139934 0.000999992 300.017 
1252 1 0.00736681 -0.0139976 0.000999998 300 
648 1 0.00943464 -0.014 0.000999991 300.059 
1049 1 0.0114353 -0.0139953 0.000999998 300 
585 1 0.0133901 -0.013565 0.000999998 300 
453 1 0.0153494 -0.0139698 0.000999997 300.003 
812 1 0.0173493 -0.0139998 0.000999993 300.049 
1111 1 0.0195007 -0.0134438 0.000999984 300.057 
713 1 0.021422 -0.014 0.000999994 300.012 
1065 1 0.0234048 -0.014 0.00126756 300.006 
82 1 0.0265155 -0.0139931 0.000999994 300.027 
383 1 0.0285156 -0.014 0.000999992 300.025 
930 1 0.030521 -0.014 0.000999997 300.093 
936 1 0.0322405 -0.014 0.00202133 300.094 
1185 1 0.0365621 -0.014 0.000999997 300.029 
961 1 0.0387276 -0.014 0.00158109 300.075 
397 1 0.0415067 -0.014 0.000999998 300.02 
434 1 0.0453634 -0.0139995 0.000999989 300.011 
845 1 0.0473634 -0.013996 0.000999993 300.004 
69 1 0.0493634 -0.014 0.000999998 300 
775 1 0.00100002 -0.0113754 0.000999998 300 
100 1 0.0029795 -0.0110896 0.000999992 300.156 
914 1 0.00557519 -0.0112015 0.00100005 300.274 
80 1 0.00757517 -0.0111953 0.000999991 300.628 
451 1 0.00998402 -0.0120769 0.000999996 300.359 
796 1 0.00840292 -0.0126653 0.00207425 300.12 
693 1 0.0116631 -0.012314 0.00206038 300.426 
1317 1 0.0131863 -0.0115688 0.000999987 300.485 
915 1 0.0160944 -0.0121103 0.000999994 300.123 
410 1 0.0190455 -0.011496 0.000999996 300.124 
830 1 0.0224371 -0.0122702 0.000999998 300.001 
320 1 0.0247898 -0.0125822 0.000999992 300.045 
112 1 0.0274126 -0.0122056 0.000999996 300.105 
75 1 0.0305709 -0.0120006 0.000999993 300.388 
44 1 0.0325472 -0.012308 0.000999993 300.234 
903 1 0.0346614 -0.0124727 0.000999987 300.335 
501 1 0.0399655 -0.0125406 0.000999994 300.141 
606 1 0.0381813 -0.0121244 0.00200969 300.301 
895 1 0.0424953 -0.0112468 0.000999991 300.212 
98 1 0.0440827 -0.0124633 0.000999998 300.056 
591 1 0.0463621 -0.0121897 0.000999998 300 
260 1 0.0483399 -0.0113954 0.000999988 300.259 
341 1 0.00236835 -0.00912792 0.000999989 300.444 
781 1 0.00434315 -0.00962605 0.00099999 300.681 
163 1 0.00630249 -0.00922482 0.000999992 301.597 
180 1 0.00969329 -0.0104144 0.00207298 301.743 
657 1 0.0113778 -0.0106424 0.000999994 300.319 
479 1 0.0130888 -0.00957115 0.00099999 300.934 
1334 1 0.0156328 -0.00933789 0.000999989 300.967 
236 1 0.0173021 -0.0105161 0.00100003 300.514 
463 1 0.0189969 -0.0094543 0.000999987 301.251 
1058 1 0.020961 -0.0109208 0.000999997 300.169 
214 1 0.021988 -0.00920459 0.000999991 301.257 
48 1 0.0236592 -0.010687 0.000999996 300.238 
1001 1 0.0256579 -0.0107646 0.000999989 300.287 
157 1 0.0275721 -0.0101849 0.00099999 301.311 
154 1 0.0295703 -0.010269 0.000999998 301.541 
849 1 0.0316899 -0.010127 0.000999998 300.13 
986 1 0.0337356 -0.0106994 0.000999992 301.101 
352 1 0.0353603 -0.00937906 0.000999998 301.146 
391 1 0.037078 -0.0107965 0.00099999 300.735 
828 1 0.0380495 -0.00904828 0.000999991 301.788 
1302 1 0.0391669 -0.010707 0.000999988 300.462 
1153 1 0.0410033 -0.00991491 0.000999992 300.671 
1029 1 0.0435086 -0.00935559 0.000999995 300.666 
734 1 0.0450013 -0.0106867 0.000999997 300.163 
168 1 0.0467898 -0.0104128 0.001852 300.399 
673 1 0.0479253 -0.00900397 0.000999991 300.921 
230 1 0.00208414 -0.00710001 0.000999993 302.028 
962 1 0.00400567 -0.00765473 0.000999989 302.74 
829 1 0.00807393 -0.0082964 0.000999989 304.611 
409 1 0.0100683 -0.00814704 0.00100015 302.292 
524 1 0.0120481 -0.00786324 0.000999994 302.409 
1221 1 0.0140493 -0.00781584 0.000999998 300.059 
1092 1 0.0173393 -0.0086903 0.00181755 302.591 
461 1 0.016624 -0.00701102 0.000999992 302.056 
1062 1 0.0197951 -0.00762048 0.000999986 305.079 
790 1 0.0215614 -0.00748521 0.00192831 306.61 
200 1 0.0233297 -0.00737885 0.000999993 303.782 
602 1 0.0247258 -0.00899514 0.000999997 300.518 
546 1 0.0254076 -0.0074302 0.00204216 301.83 
1240 1 0.0269157 -0.00822994 0.000999998 300.297 
247 1 0.0292594 -0.00829331 0.00099999 304.152 
973 1 0.0315646 -0.00811889 0.00099999 302.729 
1319 1 0.0334732 -0.00871669 0.000999992 302.06 
947 1 0.0365133 -0.00779137 0.00138712 301.253 
238 1 0.0398083 -0.00744564 0.000999998 302.148 
162 1 0.0418495 -0.00748748 0.000999997 300.365 
367 1 0.0444121 -0.00769988 0.0016651 301.108 
1274 1 0.0459344 -0.00881346 0.000999986 301.102 
1074 1 0.0498515 -0.00837781 0.000999998 300 
28 1 0.0010002 -0.00541922 0.000999994 302.069 
956 1 0.00299498 -0.00525854 0.000999998 300 
134 1 0.00500411 -0.00536152 0.000999994 304.942 
825 1 0.00684751 -0.00671657 0.000999995 304.866 
976 1 0.00894151 -0.00649438 0.000999994 310.004 
169 1 0.0109715 -0.00601028 0.000999993 306.634 
556 1 0.0129962 -0.00610228 0.000999995 307.577 
421 1 0.0149261 -0.00609382 0.001525 305.506 
1217 1 0.0184323 -0.00615665 0.000999998 304.248 
1325 1 0.0210605 -0.00573701 0.000999998 300 
496 1 0.0230199 -0.00528279 0.000999996 307.23 
639 1 0.024956 -0.005784 0.00099999 306.762 
1151 1 0.0269057 -0.0062297 0.000999984 308.681 
443 1 0.0289803 -0.00544993 0.000999998 300 
1231 1 0.0310306 -0.00545218 0.000999998 300 
146 1 0.0303193 -0.00698151 0.00207498 309.907 
1290 1 0.0330366 -0.00676492 0.000999997 303.475 
1075 1 0.0353259 -0.00621403 0.000999995 303.021 
618 1 0.038025 -0.00654034 0.000999998 300.44 
83 1 0.0399098 -0.00544822 0.000999985 308.469 
974 1 0.0424605 -0.00544572 0.000999991 306.042 
1289 1 0.0449382 -0.00588859 0.000999992 303.751 
772 1 0.0466402 -0.00609637 0.0020296 305.967 
530 1 0.0482999 -0.00652692 0.000999994 301.848 
283 1 0.00371063 -0.00338744 0.000999998 300 
750 1 0.00569461 -0.00311856 0.000999998 300 
234 1 0.00689912 -0.00471724 0.000999994 310.014 
1025 1 0.00808675 -0.00310792 0.000999998 300 
139 1 0.00957663 -0.00451693 0.000999998 300 
791 1 0.0119528 -0.0041857 0.000999985 319.47 
402 1 0.0153626 -0.004214 0.000999994 310.55 
1087 1 0.017357 -0.00447035 0.000999991 310.884 
519 1 0.0193899 -0.00431182 0.000999993 313.095 
275 1 0.0216938 -0.00378558 0.000999994 308.538 
142 1 0.0249492 -0.00393316 0.00175782 313.639 
90 1 0.0267754 -0.00423396 0.000999996 308.381 
492 1 0.032699 -0.00434362 0.000999993 310.402 
749 1 0.0350091 -0.00423928 0.000999994 310.557 
1187 1 0.0369358 -0.00484893 0.000999997 303.697 
175 1 0.0402006 -0.00358298 0.00166048 317.237 
1050 1 0.0420853 -0.00347573 0.000999995 305.916 
846 1 0.0439728 -0.00413701 0.000999988 309.504 
424 1 0.0456873 -0.00431841 0.00201368 307.997 
1243 1 0.0474114 -0.00430605 0.000999998 308.787 
3721 1 0.0493439 -0.00482097 0.000999988 305.601 
77 1 0.00106452 -0.0020767 0.000999998 300 
37 1 0.00269634 -0.00135299 0.00200246 321.547 
1108 1 0.00442621 -0.00130241 0.000999983 321.235 
385 1 0.0074663 -0.0011745 0.000999988 326.906 
89 1 0.0100508 -0.00255556 0.000999998 300 
318 1 0.0118586 -0.00167902 0.000999998 310.675 
32 1 0.0138228 -0.00205531 0.000999998 307.158 
964 1 0.0158217 -0.00212183 0.000999998 306.044 
1180 1 0.0177825 -0.00251614 0.000999993 312.223 
885 1 0.0201852 -0.00247261 0.000999997 314.085 
264 1 0.0220832 -0.00158202 0.000999986 322.872 
258 1 0.0241116 -0.00228266 0.001 320.284 
291 1 0.0258098 -0.00110755 0.000999998 308.246 
1052 1 0.0282802 -0.00291658 0.000999992 321.005 
486 1 0.0304223 -0.00274938 0.000999993 314.222 
401 1 0.0328101 -0.00186878 0.000999996 309.328 
91 1 0.0348112 -0.00186302 0.00099999 315.922 
1248 1 0.0364864 -0.00291987 0.00127711 308.424 
1196 1 0.0384654 -0.00283657 0.000999995 309.857 
351 1 0.0409167 -0.00183629 0.000999995 314.802 
1003 1 0.0429073 -0.00158971 0.000999997 309.01 
545 1 0.0452833 -0.00262575 0.000999997 312.272 
31 1 0.0472197 -0.00212533 0.000999991 311.644 
1027 1 0.0491105 -0.00283465 0.000999996 303.516 
620 1 0.00150677 0.000624044 0.000999984 314.269 
817 1 0.00370975 0.000569624 0.000999998 300 
127 1 0.00591125 -0.000406584 0.00199601 350.495 
306 1 0.00756563 0.000823028 0.000999994 316.366 
167 1 0.00960301 -0.000600847 0.000999992 330.617 
721 1 0.0132144 -0.000384327 0.00191523 341.665 
33 1 0.0157868 -0.000111401 0.000999998 300 
522 1 0.0178038 -0.000350328 0.000999998 300 
1330 1 0.0201726 -0.000472055 0.000999998 300 
624 1 0.0239822 -0.000286865 0.000999988 327.849 
799 1 0.0222849 0.000162791 0.00195755 351.714 
644 1 0.0278053 -0.000973797 0.000999988 332.396 
181 1 0.0267602 0.000746165 0.000999994 337.312 
289 1 0.0300684 -0.000444246 0.000999989 322.652 
899 1 0.0320249 -2.93762e-05 0.000999997 310.358 
184 1 0.0341146 1.68842e-05 0.000999998 301.542 
1191 1 0.0369446 -0.000988238 0.000999998 306.431 
625 1 0.0395878 -0.000291072 0.000999998 311.625 
250 1 0.0417007 7.81934e-06 0.000999996 321.439 
1247 1 0.0440456 0.00057442 0.000999991 322.249 
518 1 0.045939 -0.000588995 0.000999992 330.181 
198 1 0.0476838 0.000898639 0.000999998 300 
527 1 0.0488465 -0.000852146 0.000999995 311.352 
904 1 0.0494914 0.00083641 0.00185608 333.683 
305 1 0.00264916 0.00226565 0.00100002 322.328 
408 1 0.00557638 0.00129512 0.000999993 335.354 
1037 1 0.00643218 0.00282586 0.00196146 362.189 
1054 1 0.00968458 0.00225442 0.000999996 316.338 
310 1 0.0118961 0.00105157 0.000999998 303.743 
364 1 0.0129022 0.00293552 0.000999998 308.234 
392 1 0.0139525 0.00123354 0.000999991 326.575 
430 1 0.0169059 0.00174167 0.000999993 331.699 
723 1 0.018996 0.00172789 0.000999992 323.195 
279 1 0.0209923 0.00135248 0.000999998 300 
1099 1 0.0248586 0.00295496 0.000999993 335.518 
1044 1 0.0241312 0.00141222 0.00204443 368.137 
1226 1 0.0268526 0.0027672 0.000999989 350.291 
474 1 0.0285332 0.00167963 0.000999992 328.912 
1175 1 0.0304799 0.00146998 0.0014079 334.339 
280 1 0.033244 0.00181831 0.000999998 307.001 
476 1 0.0350733 0.0024588 0.0014934 328.742 
735 1 0.0363974 0.00104339 0.000999985 338.896 
311 1 0.0384834 0.00158561 0.000999987 340.96 
562 1 0.0405308 0.00178272 0.000999989 336.681 
197 1 0.0425283 0.0018813 0.000999995 323.603 
615 1 0.0443907 0.00261031 0.000999986 336.862 
568 1 0.0458138 0.00132471 0.00156747 359.006 
1197 1 0.0497082 0.00263088 0.000999994 335.296 
366 1 0.00100063 0.00383724 0.000999997 305.53 
920 1 0.0043839 0.00326097 0.00099999 327.874 
1036 1 0.00644525 0.00457953 0.000999989 329.332 
314 1 0.00844672 0.00420282 0.000999998 300 
1224 1 0.0104826 0.00408961 0.000999992 331.37 
1124 1 0.0123036 0.0049164 0.000999992 338.517 
1286 1 0.0152051 0.00422662 0.000999983 341.641 
972 1 0.0186014 0.00369399 0.000999996 318.894 
493 1 0.0202753 0.0030119 0.00185588 364.518 
939 1 0.02075 0.00475605 0.000999988 347.218 
923 1 0.0220823 0.00307749 0.000999993 333.297 
241 1 0.0235323 0.00445514 0.00099999 345.54 
322 1 0.0254857 0.00479463 0.00147149 349.848 
485 1 0.0274261 0.00468323 0.000999995 335.993 
814 1 0.0294225 0.00456453 0.000999989 341.415 
1229 1 0.031651 0.00303909 0.000999991 331.996 
879 1 0.0329325 0.00472652 0.000999998 300 
1019 1 0.0354244 0.00436559 0.000999992 335.983 
26 1 0.0374497 0.00408386 0.000999998 300 
946 1 0.0393305 0.00340354 0.000999998 310.546 
1314 1 0.041438 0.0035651 0.000999997 327.686 
300 1 0.0429164 0.00497018 0.000999991 336.696 
757 1 0.0450353 0.00455743 0.000999996 327.628 
121 1 0.0464429 0.00313648 0.000999998 300 
2899 1 0.0491937 0.0045982 0.000999981 344.948 
235 1 0.0481355 0.00327053 0.00205706 369.558 
852 1 0.00147344 0.00578054 0.000999994 305.7 
143 1 0.00359123 0.00509717 0.000999997 323.773 
712 1 0.00611097 0.00655139 0.000999995 327.239 
857 1 0.00765647 0.00583318 0.0020467 347.183 
156 1 0.0101027 0.00606716 0.000999991 335.094 
733 1 0.0125017 0.00690655 0.000999988 343.481 
761 1 0.0142906 0.0060107 0.000999998 300 
1306 1 0.0170989 0.00501409 0.000999991 330.559 
1285 1 0.0165013 0.00696639 0.000999998 305.76 
237 1 0.0189814 0.0056897 0.000999997 325.244 
621 1 0.0222928 0.00602882 0.00099999 337.326 
1134 1 0.0242725 0.00631312 0.000999989 339.575 
1154 1 0.028986 0.0067722 0.000999991 341.806 
332 1 0.0310772 0.00569306 0.000999998 300 
404 1 0.0326452 0.00696578 0.000999994 330.513 
1299 1 0.0344553 0.0061151 0.000999994 329.143 
1088 1 0.0366774 0.00592881 0.000999988 358.794 
54 1 0.0390828 0.00538836 0.000999994 331.002 
176 1 0.0410339 0.00582837 0.000999992 330.843 
544 1 0.0455162 0.00651387 0.000999998 300 
469 1 0.0472716 0.00515104 0.000999995 323.952 
14 1 0.0486979 0.00655309 0.000999996 334.534 
741 1 0.000999996 0.00772368 0.00100003 310.16 
187 1 0.00278473 0.00862649 0.000999991 320.347 
540 1 0.00401709 0.00705129 0.000999987 323.499 
193 1 0.00477681 0.00895836 0.000999998 300 
253 1 0.0068207 0.00842122 0.000999996 324.471 
959 1 0.00850773 0.00730957 0.000999992 332.03 
328 1 0.0114072 0.00885112 0.000999998 300 
718 1 0.0132987 0.00844915 0.0019926 345.307 
978 1 0.0151909 0.00848408 0.000999991 334.947 
488 1 0.0171399 0.00893312 0.000999991 327.902 
847 1 0.0186891 0.00766823 0.000999992 329.468 
473 1 0.0206945 0.0074013 0.000999998 300 
854 1 0.0226507 0.00799697 0.000999991 343.409 
207 1 0.0263751 0.00739619 0.000999998 300.146 
513 1 0.0293352 0.00896057 0.00151575 326.649 
651 1 0.0307733 0.00766986 0.000999989 331.106 
1298 1 0.0326488 0.00875108 0.00190147 327.833 
1244 1 0.0353883 0.00770327 0.00177925 361.292 
611 1 0.0372176 0.00791835 0.000999986 337.574 
730 1 0.0393593 0.00754743 0.000999997 326.469 
835 1 0.0417267 0.00744182 0.00195747 373.12 
110 1 0.0436805 0.00766014 0.000999996 328.392 
428 1 0.0469194 0.00795518 0.000999997 308.184 
174 1 0.0497579 0.00825521 0.000999987 345.002 
205 1 0.00100021 0.00991911 0.000999985 310.862 
177 1 0.00272024 0.0104073 0.001908 320.908 
674 1 0.00638342 0.0103728 0.000999989 324.413 
79 1 0.00942032 0.00908922 0.000999998 332.386 
1320 1 0.0104938 0.0103921 0.00207241 344.942 
779 1 0.012119 0.0108494 0.00100017 328.914 
292 1 0.0139551 0.0100566 0.000999991 329.597 
11 1 0.015904 0.0105056 0.00099999 324.791 
50 1 0.0188973 0.00950435 0.00176508 319.821 
1042 1 0.0207436 0.00942881 0.000999998 305.481 
694 1 0.0226224 0.0101149 0.000999989 330.739 
147 1 0.0240051 0.00907428 0.00200252 358.786 
983 1 0.0256274 0.00967679 0.000999989 328.2 
798 1 0.0278229 0.0101635 0.000999996 311.638 
966 1 0.0311269 0.00968438 0.000999995 315.545 
1186 1 0.033815 0.0102344 0.000999995 321.406 
1091 1 0.035782 0.00950263 0.000999993 334.522 
93 1 0.0382867 0.00960858 0.000999998 329.955 
1160 1 0.0399631 0.0106994 0.000999988 317.198 
575 1 0.0411762 0.00910919 0.00099999 332.424 
985 1 0.04312 0.00957997 0.000999996 317.523 
359 1 0.0453271 0.00941899 0.000999995 324.661 
969 1 0.0472618 0.00992566 0.000999998 312.351 
78 1 0.0492059 0.0103951 0.000999992 314.31 
363 1 0.000999994 0.0125472 0.000999995 303.333 
811 1 0.00296408 0.0122886 0.00127469 310.808 
743 1 0.00449491 0.0110312 0.000999993 312.12 
1251 1 0.00600936 0.0123375 0.000999995 310.242 
72 1 0.009055 0.0112752 0.000999994 319.72 
1313 1 0.0110293 0.0125265 0.00099999 316.211 
654 1 0.0139151 0.0120596 0.000999989 321.584 
271 1 0.0178306 0.0110468 0.000999998 300 
15 1 0.0191506 0.0123316 0.00178965 316.172 
215 1 0.0208644 0.0116686 0.00099999 316.724 
420 1 0.0226323 0.0118976 0.00190669 321.634 
449 1 0.0244554 0.012149 0.000999998 307.569 
39 1 0.0263672 0.0115349 0.000999992 313.647 
188 1 0.0295985 0.0111181 0.000999991 320.311 
425 1 0.028129 0.0124814 0.000999992 306.816 
1095 1 0.0312193 0.01229 0.000999998 300.001 
1227 1 0.033219 0.0122468 0.000999995 312.11 
119 1 0.0353449 0.0122915 0.000999998 300 
650 1 0.0369685 0.0111127 0.000999989 323.565 
1138 1 0.0386186 0.0122428 0.000999992 317.273 
979 1 0.0405124 0.0124274 0.00184388 326.943 
316 1 0.0424182 0.0117034 0.000999998 307.318 
1297 1 0.0443447 0.0111611 0.00099999 322.336 
1206 1 0.046545 0.0118446 0.000999993 318.863 
380 1 0.0484365 0.0121497 0.00157368 311.057 
347 1 0.00209295 0.014 0.00183359 303.406 
309 1 0.00396196 0.014 0.000999998 304.544 
1130 1 0.00566062 0.014 0.00205571 311.074 
807 1 0.00735927 0.014 0.000999991 306.913 
114 1 0.00931258 0.0135525 0.000999993 308.096 
240 1 0.0123816 0.014 0.000999997 306.548 
672 1 0.0144052 0.014 0.000999998 303.706 
729 1 0.0161846 0.014 0.00191321 312.673 
758 1 0.0179409 0.0137147 0.000999996 307.724 
1038 1 0.0199206 0.014 0.000999993 306.432 
81 1 0.0217812 0.0139926 0.00173331 311.378 
676 1 0.0236419 0.0139761 0.000999994 306.018 
534 1 0.0264774 0.0137779 0.000999998 300 
526 1 0.0299137 0.014 0.000999997 302.303 
101 1 0.0322566 0.014 0.000999994 306.579 
1304 1 0.0342566 0.014 0.00099999 308.656 
1171 1 0.0370653 0.0139111 0.000999998 300 
442 1 0.0396097 0.014 0.000999989 313.571 
348 1 0.0423186 0.0137129 0.000999998 300 
626 1 0.0443208 0.014 0.000999994 306.512 
935 1 0.0466502 0.0139487 0.000999998 300 
766 1 0.0489339 0.014 0.000999995 306.986 
728 1 0.00392052 -0.014 0.00238429 300.049 
1249 1 0.00256444 -0.0132265 0.00363435 300.193 
929 1 0.00450257 -0.0131416 0.00412055 300.32 
1137 1 0.00634469 -0.014 0.00274303 300.051 
1097 1 0.0078871 -0.0133954 0.0038635 300.218 
598 1 0.0095839 -0.014 0.0029944 300.105 
1056 1 0.0115791 -0.014 0.0031329 300.129 
747 1 0.0135702 -0.014 0.00294461 300.032 
1337 1 0.0162623 -0.0135725 0.00273454 300.022 
789 1 0.0184969 -0.014 0.00263796 300.2 
894 1 0.0203583 -0.014 0.00336963 300.101 
507 1 0.0220847 -0.0132262 0.00272104 300.066 
170 1 0.0250702 -0.014 0.00238244 300.032 
993 1 0.0240141 -0.0139722 0.00408059 300.162 
1048 1 0.0275175 -0.0134232 0.00263438 300.091 
1267 1 0.0262053 -0.014 0.00402915 300.016 
43 1 0.0295 -0.014 0.00274091 300.086 
1169 1 0.0312288 -0.014 0.00374657 300.219 
1008 1 0.0331407 -0.0134146 0.0037886 300.093 
1168 1 0.0342309 -0.014 0.00221734 300.089 
288 1 0.0350354 -0.014 0.00404837 300.09 
158 1 0.0375146 -0.014 0.00317125 300.035 
47 1 0.0406544 -0.0133617 0.00269294 300.104 
274 1 0.0425983 -0.014 0.00386091 300.017 
652 1 0.0441287 -0.014 0.00257328 300.014 
689 1 0.0463276 -0.014 0.00275222 300.023 
1184 1 0.0483371 -0.014 0.00274697 300.02 
1026 1 0.000999991 -0.0126891 0.00251021 300.086 
261 1 0.000999995 -0.011326 0.00397369 300.355 
1343 1 0.00301409 -0.0113076 0.00397475 300.717 
87 1 0.00423913 -0.0120312 0.0022356 300.083 
355 1 0.00504244 -0.0112267 0.00391614 301.134 
1208 1 0.00656471 -0.0120234 0.00253146 300.084 
22 1 0.00843274 -0.011079 0.00371936 301.279 
378 1 0.0101037 -0.0120919 0.00329275 300.368 
1220 1 0.0128444 -0.012285 0.00367402 300.328 
4 1 0.0145348 -0.0124065 0.00221646 300.121 
336 1 0.015519 -0.0118383 0.00386221 300.135 
622 1 0.0176585 -0.0122282 0.00224094 300.073 
1077 1 0.0174136 -0.0112732 0.00416425 300.422 
736 1 0.0189909 -0.012447 0.00379728 300.939 
681 1 0.0203697 -0.0122626 0.00236006 300.038 
859 1 0.022665 -0.0115618 0.00410205 300.503 
806 1 0.0239103 -0.0124121 0.00278814 300.233 
1152 1 0.0260548 -0.0120702 0.00246214 300.226 
999 1 0.0279366 -0.0119296 0.00389669 300.27 
1316 1 0.0289735 -0.011821 0.0021899 300.483 
797 1 0.029953 -0.0124734 0.00395094 300.472 
1264 1 0.0315301 -0.0122716 0.00273395 300.186 
20 1 0.0336445 -0.0118753 0.00261523 300.829 
1336 1 0.0350723 -0.0118548 0.00401562 300.867 
1126 1 0.0354465 -0.0110244 0.00213404 301.2 
233 1 0.0359508 -0.0129117 0.00256269 300.17 
450 1 0.0369507 -0.0113847 0.00340195 300.441 
160 1 0.0392319 -0.0123737 0.00369314 300.475 
724 1 0.0409925 -0.0114286 0.00230715 300.509 
876 1 0.0419024 -0.0120667 0.00396995 300.251 
872 1 0.0425493 -0.0128203 0.00223337 300.047 
704 1 0.0449215 -0.0120423 0.00276611 300.07 
945 1 0.0469145 -0.0120959 0.00292509 300.124 
221 1 0.0489219 -0.0120878 0.00278378 300.138 
1245 1 0.000999993 -0.00928449 0.00395345 301.435 
744 1 0.00199872 -0.0103191 0.00256345 300.62 
635 1 0.00390569 -0.00984746 0.00293895 301.451 
136 1 0.00590224 -0.00974057 0.00289044 302.855 
418 1 0.00782929 -0.00974667 0.00235529 302.638 
1057 1 0.0112144 -0.00913699 0.00230648 301.608 
259 1 0.0102857 -0.010154 0.00396539 302.125 
1318 1 0.0125372 -0.0106075 0.00262928 301.924 
725 1 0.0121185 -0.00937428 0.00414712 306.565 
1205 1 0.0144017 -0.00990101 0.00247217 302.091 
422 1 0.0163222 -0.0103914 0.00273907 300.62 
924 1 0.0183927 -0.0103733 0.00267041 301.263 
395 1 0.0200087 -0.0107212 0.00379621 300.847 
1195 1 0.0205045 -0.00947314 0.00231414 300.63 
500 1 0.0225748 -0.0102262 0.0026161 300.955 
213 1 0.0246572 -0.0105577 0.00272838 300.535 
909 1 0.0263344 -0.0095128 0.00242 302.146 
740 1 0.0265318 -0.0105259 0.00413308 301.172 
521 1 0.0284821 -0.00929895 0.00254496 304.524 
997 1 0.0297075 -0.0105331 0.00353251 302.17 
445 1 0.0304806 -0.00911342 0.00235493 303.461 
1261 1 0.0322714 -0.0104207 0.00289093 300.809 
529 1 0.0340991 -0.00964259 0.00265859 304.658 
277 1 0.0355513 -0.00991304 0.00402491 304.42 
124 1 0.0367214 -0.00947922 0.002462 303.012 
960 1 0.0385169 -0.0102744 0.00284128 300.933 
510 1 0.0401572 -0.0106169 0.00393302 303.648 
533 1 0.0434256 -0.0107171 0.00268929 300.588 
552 1 0.044975 -0.00945352 0.0026339 302.366 
697 1 0.0458235 -0.0106606 0.00398403 301.091 
440 1 0.0475928 -0.00981798 0.00358448 301.363 
1021 1 0.0490805 -0.0100354 0.00226562 301.47 
95 1 0.0495155 -0.0105984 0.00413479 302.675 
564 1 0.00099999 -0.00828587 0.00219099 301.515 
1178 1 0.00294431 -0.00812116 0.0026297 301.016 
1005 1 0.00493772 -0.00799531 0.00273643 308.288 
284 1 0.00642498 -0.00807971 0.00407095 310.962 
27 1 0.00807073 -0.00718883 0.00266529 317.469 
344 1 0.00938651 -0.00866083 0.00298457 306.63 
455 1 0.0105623 -0.00708018 0.00263943 313.5 
636 1 0.0124312 -0.00770239 0.00298568 305.647 
1006 1 0.0139625 -0.00858986 0.00391714 307.432 
457 1 0.0154895 -0.00790228 0.00238508 300.468 
719 1 0.0174886 -0.00898444 0.00379015 304.635 
970 1 0.0173748 -0.00710733 0.00303941 305.337 
179 1 0.019032 -0.00819104 0.00275844 305.453 
138 1 0.0218439 -0.00861733 0.00355266 303.678 
818 1 0.0203462 -0.00738063 0.00402971 313.925 
246 1 0.0236322 -0.00852863 0.00260825 301.807 
52 1 0.0251761 -0.00874884 0.00386041 306.54 
788 1 0.0270982 -0.00816529 0.00368523 304.837 
988 1 0.028116 -0.00722336 0.00224411 311.061 
490 1 0.0294674 -0.00792801 0.00361716 313.408 
84 1 0.031579 -0.00882185 0.0040007 310.12 
574 1 0.0326897 -0.00787248 0.00263506 305.195 
1270 1 0.0346324 -0.00763772 0.00222151 303.435 
890 1 0.0361877 -0.00783246 0.00346367 308.94 
51 1 0.0380266 -0.00798128 0.00269142 307.389 
631 1 0.0399048 -0.00892272 0.00234495 300.85 
96 1 0.0393912 -0.00787195 0.00414942 314.238 
511 1 0.0410111 -0.00732224 0.00280826 302.177 
466 1 0.041122 -0.00887299 0.00410041 311.2 
1303 1 0.0421003 -0.00893786 0.00235721 303.134 
958 1 0.0436162 -0.00824038 0.00345969 309.008 
801 1 0.0466159 -0.00823817 0.00279014 303.806 
12 1 0.0485517 -0.00783185 0.00249456 304.318 
1322 1 0.00166231 -0.00652449 0.00286836 305.727 
1341 1 0.00396419 -0.00627271 0.00244508 306.019 
558 1 0.00510905 -0.00651309 0.00406821 324.134 
1255 1 0.00617585 -0.0056989 0.0025853 313.492 
56 1 0.00920399 -0.00554256 0.00273928 330.639 
1328 1 0.0124008 -0.00589791 0.00386145 336.078 
981 1 0.0141383 -0.00669754 0.00326137 307.597 
63 1 0.016488 -0.00538171 0.00255375 315.172 
942 1 0.0197866 -0.00626282 0.00246853 317.587 
1115 1 0.0187325 -0.00616465 0.0041654 340.357 
394 1 0.0204476 -0.00512481 0.00397452 325.848 
433 1 0.0221624 -0.00664013 0.00363846 321.92 
1004 1 0.0238057 -0.00623755 0.0025719 311.359 
957 1 0.0256907 -0.00562412 0.0028533 309.42 
436 1 0.0276169 -0.00518118 0.0025475 329.102 
769 1 0.0283152 -0.00634638 0.0040305 337.949 
141 1 0.0300155 -0.00540323 0.00326521 327.648 
59 1 0.0319484 -0.00601689 0.00271977 314.204 
104 1 0.0339034 -0.00541545 0.00219479 313.4 
489 1 0.0353605 -0.00612222 0.00408883 322.585 
1166 1 0.0366481 -0.00613693 0.00250276 305.233 
58 1 0.0378524 -0.00653306 0.00405974 325.416 
593 1 0.0392466 -0.00639765 0.00263055 308.516 
897 1 0.041185 -0.00533196 0.00253628 323.316 
1 1 0.0428685 -0.00661072 0.0025736 303.615 
759 1 0.0446992 -0.00576291 0.00298167 310.796 
396 1 0.0462771 -0.0066257 0.00392378 315.049 
1234 1 0.0482705 -0.00512445 0.00266 313.589 
3839 1 0.0498275 -0.00635211 0.00292208 316.191 
539 1 0.000999991 -0.00463755 0.00284091 306.48 
502 1 0.0028692 -0.00496099 0.00348449 307.982 
1090 1 0.00241806 -0.00326162 0.00253127 310.383 
666 1 0.00465322 -0.00440221 0.00271947 311.706 
102 1 0.00755571 -0.00396157 0.00273142 330.408 
263 1 0.00952789 -0.00357948 0.00294262 360.742 
659 1 0.0111076 -0.00492458 0.00267413 318.268 
61 1 0.0132155 -0.00474062 0.00244835 324.2 
701 1 0.014857 -0.00485586 0.003585 336.806 
968 1 0.0144952 -0.00320426 0.00249262 335.731 
949 1 0.0164875 -0.00336364 0.00242094 328.929 
815 1 0.0184075 -0.00482756 0.00266398 322.32 
941 1 0.0219151 -0.00493099 0.00262965 316.566 
793 1 0.0203805 -0.00364863 0.00260586 332.723 
371 1 0.0217992 -0.00348212 0.00400576 362.897 
437 1 0.0237219 -0.00436751 0.00327611 313.833 
232 1 0.0256883 -0.00374046 0.00360621 331.484 
1053 1 0.0274331 -0.0032043 0.00278871 316.652 
1113 1 0.0294168 -0.00367225 0.0024619 339.129 
239 1 0.0285386 -0.00436099 0.00412155 381.331 
125 1 0.0313661 -0.00411936 0.00247416 326.147 
503 1 0.0305202 -0.00320882 0.00406428 379.586 
685 1 0.0338027 -0.00315327 0.00216831 319.784 
1183 1 0.0329001 -0.00455259 0.00369441 323.888 
607 1 0.0355435 -0.00451931 0.00290681 330.504 
670 1 0.0344352 -0.0033252 0.00406679 384.392 
337 1 0.0372277 -0.00348272 0.00320522 339.006 
1129 1 0.0385362 -0.00458563 0.00217014 315.036 
731 1 0.0397943 -0.0039422 0.00358553 349.93 
571 1 0.0429846 -0.00447594 0.00270542 313.058 
971 1 0.0428698 -0.00304037 0.00409671 382.746 
708 1 0.0447234 -0.00389631 0.00371446 321.167 
886 1 0.0466457 -0.00466918 0.00373368 313.167 
1181 1 0.0478672 -0.0031672 0.00257964 335.172 
7 1 0.000999995 -0.00224926 0.00351349 319.634 
194 1 0.00444504 -0.00241389 0.00266259 330.747 
824 1 0.00663811 -0.002199 0.00250483 333.02 
850 1 0.00789364 -0.0024833 0.00403545 347.127 
520 1 0.00878403 -0.00181657 0.00236061 352.034 
1122 1 0.011365 -0.00295271 0.00246086 348.543 
1071 1 0.0110248 -0.00157098 0.0038662 410.684 
1326 1 0.0128951 -0.00189142 0.00319063 347.909 
592 1 0.0149515 -0.00128289 0.00280888 358.669 
251 1 0.0169801 -0.001426 0.00247444 334.071 
702 1 0.0161354 -0.00228746 0.00406953 325.272 
1149 1 0.0180125 -0.00280077 0.00358607 369.102 
379 1 0.0189674 -0.00158635 0.00231587 335.255 
1284 1 0.0210353 -0.00176092 0.00269408 357.475 
794 1 0.0227832 -0.00284188 0.00238658 332.069 
448 1 0.0225297 -0.0013417 0.0039554 394.763 
1114 1 0.0242126 -0.00239472 0.00371208 373.354 
1335 1 0.0270199 -0.00120829 0.00282432 384.36 
687 1 0.0291767 -0.00168212 0.00229324 352.054 
753 1 0.0287052 -0.00236798 0.00411184 411.483 
628 1 0.0312942 -0.00143576 0.00223057 321.863 
937 1 0.0323336 -0.00265285 0.00342984 362.6 
637 1 0.0355118 -0.00215918 0.00284971 348.264 
998 1 0.0373732 -0.001489 0.00314284 339.281 
128 1 0.0393168 -0.00208354 0.00264561 331.611 
871 1 0.0411969 -0.00260098 0.00308983 313.41 
992 1 0.0426257 -0.00120919 0.00294356 332.7 
587 1 0.0438385 -0.00269671 0.00238109 334.593 
710 1 0.0445866 -0.00189194 0.0040522 387.352 
512 1 0.0461727 -0.00207084 0.00270327 310.654 
21 1 0.0478069 -0.00170423 0.00394202 411.144 
1170 1 0.0495766 -0.00258666 0.00344025 351.227 
822 1 0.000999987 -0.000473589 0.00259319 315.634 
109 1 0.0024542 -0.000832872 0.00391839 351.417 
528 1 0.00578114 -0.000842966 0.00394346 418.907 
242 1 0.00411277 -0.000225061 0.00285187 331.075 
144 1 0.00763281 -0.000245222 0.00300108 360.614 
1192 1 0.00914761 -0.000927255 0.00411472 407.517 
419 1 0.00945075 0.000512878 0.0026542 368.108 
412 1 0.0112445 -0.000305026 0.0023172 318.579 
1076 1 0.0126516 8.42541e-06 0.00379379 394.788 
62 1 0.0149188 0.000712616 0.0026792 377.236 
296 1 0.0169126 0.000567618 0.00261911 373.116 
1125 1 0.0179476 -0.000535511 0.00398153 375.118 
229 1 0.0189022 0.000404401 0.0024965 362.388 
1121 1 0.0207436 0.000143193 0.00323189 377.138 
1269 1 0.0233602 0.000450973 0.00361969 414.787 
182 1 0.0248598 -0.000777839 0.00272881 320.905 
438 1 0.0259157 0.000919027 0.00280466 401.658 
1194 1 0.0286065 0.000232978 0.00237905 362.417 
896 1 0.0318096 -0.000830484 0.00406577 412.01 
1030 1 0.0305119 0.000242498 0.00298658 368.089 
334 1 0.033172 -0.000725086 0.00260031 308.71 
19 1 0.0356439 -0.00022773 0.00234772 364.496 
65 1 0.0377027 0.000305464 0.00232351 353.991 
1120 1 0.0390534 -0.000489579 0.00382456 387.109 
1079 1 0.0395763 0.00096548 0.00255594 356.368 
1268 1 0.0407291 -0.00066785 0.0026123 347.351 
267 1 0.0425149 0.000767667 0.00266122 350.478 
307 1 0.0436758 2.84905e-05 0.00411238 431.667 
640 1 0.0445885 -0.000664407 0.00247324 360.361 
1235 1 0.0459945 0.00043435 0.00337651 358.022 
559 1 0.0474154 -0.000541394 0.0023621 319.548 
70 1 0.0493083 -0.000516063 0.00336394 366.926 
777 1 0.000999995 0.00110825 0.00381703 320.008 
471 1 0.000999996 0.00219067 0.00213525 316.325 
1043 1 0.00259936 0.0010612 0.00261711 334.312 
1165 1 0.0043985 0.00192522 0.00248846 360.039 
1342 1 0.00615918 0.00122393 0.00312734 367.485 
948 1 0.00824989 0.00209418 0.00238418 343.507 
73 1 0.00954494 0.00198347 0.0040064 408.532 
505 1 0.0109079 0.00187772 0.00253671 328.686 
921 1 0.0128894 0.00162969 0.00264707 329.904 
698 1 0.0148031 0.00263621 0.00214408 367.718 
542 1 0.0161275 0.00214771 0.00356089 375.649 
202 1 0.0179548 0.00149021 0.00405531 440.357 
1312 1 0.0198177 0.00190183 0.00345535 413.641 
1100 1 0.0218928 0.00199069 0.0026682 385.821 
902 1 0.024654 0.0020511 0.00386609 430.428 
715 1 0.0275718 0.00203697 0.00271739 401.016 
209 1 0.0292263 0.00157551 0.00374179 417.946 
68 1 0.030945 0.00242399 0.00317064 371.671 
189 1 0.0323332 0.0010903 0.00262827 335.178 
122 1 0.0331342 0.00221269 0.00408336 375.668 
1112 1 0.0343195 0.0011875 0.00284081 344.203 
1259 1 0.0371473 0.00244187 0.00221728 383.68 
570 1 0.0366618 0.0011466 0.00380976 425.818 
1070 1 0.0392343 0.0028996 0.00293307 341.951 